 TITLE="normal velocity for solution of GS equation with flow"
                   Variables ="theta", "r", "R [m] ","z [m]", "q", "psi", "vpol", "vnorm", "v_ratio"
 ZONE I=         201 ,F=Point
 0.000000000E+00   0.384118464E+00   0.213811963E+01   0.235680980E-01   0.150000000E+01   0.118671148E+00   0.396387479E+04  -0.113341081E+00  -0.285935070E-04
 0.314159265E-01   0.384116610E+00   0.213792824E+01   0.356334923E-01   0.150000000E+01   0.118671148E+00   0.396698594E+04  -0.643913292E+00  -0.162318017E-03
 0.628318531E-01   0.384268850E+00   0.213751175E+01   0.476965388E-01   0.150000000E+01   0.118671148E+00   0.396998234E+04  -0.119067567E+01  -0.299919639E-03
 0.942477796E-01   0.384536059E+00   0.213683064E+01   0.597561380E-01   0.150000000E+01   0.118671148E+00   0.397243431E+04  -0.169357866E+01  -0.426332704E-03
 0.125663706E+00   0.384950587E+00   0.213591630E+01   0.718151998E-01   0.150000000E+01   0.118671148E+00   0.397417674E+04  -0.224710498E+01  -0.565426535E-03
 0.157079633E+00   0.385491218E+00   0.213474635E+01   0.838722105E-01   0.150000000E+01   0.118671148E+00   0.397537153E+04  -0.276105293E+01  -0.694539593E-03
 0.188495559E+00   0.386179034E+00   0.213333991E+01   0.959308331E-01   0.150000000E+01   0.118671148E+00   0.397624380E+04  -0.328789431E+01  -0.826884486E-03
 0.219911486E+00   0.387004846E+00   0.213168568E+01   0.107990590E+00   0.150000000E+01   0.118671148E+00   0.397653788E+04  -0.377963775E+01  -0.950484534E-03
 0.251327412E+00   0.387967724E+00   0.212978017E+01   0.120051748E+00   0.150000000E+01   0.118671148E+00   0.397569232E+04  -0.432217947E+01  -0.108715140E-02
 0.282743339E+00   0.389080952E+00   0.212763315E+01   0.132118223E+00   0.150000000E+01   0.118671148E+00   0.397466830E+04  -0.482756415E+01  -0.121458290E-02
 0.314159265E+00   0.390328559E+00   0.212522569E+01   0.144186256E+00   0.150000000E+01   0.118671148E+00   0.397236465E+04  -0.533649401E+01  -0.134340487E-02
 0.345575192E+00   0.391736397E+00   0.212257841E+01   0.156264070E+00   0.150000000E+01   0.118671148E+00   0.396984455E+04  -0.586700899E+01  -0.147789389E-02
 0.376991118E+00   0.393274207E+00   0.211965828E+01   0.168341990E+00   0.150000000E+01   0.118671148E+00   0.396581449E+04  -0.635269480E+01  -0.160186383E-02
 0.408407045E+00   0.394981882E+00   0.211649762E+01   0.180434319E+00   0.150000000E+01   0.118671148E+00   0.396156916E+04  -0.694202892E+01  -0.175234324E-02
 0.439822972E+00   0.396819446E+00   0.211305414E+01   0.192525601E+00   0.150000000E+01   0.118671148E+00   0.395600420E+04  -0.731730005E+01  -0.184966943E-02
 0.471238898E+00   0.398826932E+00   0.210935856E+01   0.204631736E+00   0.150000000E+01   0.118671148E+00   0.394955306E+04  -0.798834671E+01  -0.202259511E-02
 0.502654825E+00   0.400972125E+00   0.210537572E+01   0.216737893E+00   0.150000000E+01   0.118671148E+00   0.394203068E+04  -0.838084428E+01  -0.212602208E-02
 0.534070751E+00   0.403287713E+00   0.210112785E+01   0.228858246E+00   0.150000000E+01   0.118671148E+00   0.393374935E+04  -0.894933278E+01  -0.227501348E-02
 0.565486678E+00   0.405749807E+00   0.209658706E+01   0.240979717E+00   0.150000000E+01   0.118671148E+00   0.392426019E+04  -0.937247259E+01  -0.238834127E-02
 0.596902604E+00   0.408375564E+00   0.209176066E+01   0.253109215E+00   0.150000000E+01   0.118671148E+00   0.391372743E+04  -0.990138620E+01  -0.252991205E-02
 0.628318531E+00   0.411157420E+00   0.208663451E+01   0.265240366E+00   0.150000000E+01   0.118671148E+00   0.390196282E+04  -0.104155095E+02  -0.266930003E-02
 0.659734457E+00   0.414098036E+00   0.208120281E+01   0.277371705E+00   0.150000000E+01   0.118671148E+00   0.388895252E+04  -0.109171962E+02  -0.280723310E-02
 0.691150384E+00   0.417203959E+00   0.207546234E+01   0.289503910E+00   0.150000000E+01   0.118671148E+00   0.387482975E+04  -0.115003440E+02  -0.296796112E-02
 0.722566310E+00   0.420465670E+00   0.206939712E+01   0.301627034E+00   0.150000000E+01   0.118671148E+00   0.385935964E+04  -0.118889893E+02  -0.308056009E-02
 0.753982237E+00   0.423899919E+00   0.206301091E+01   0.313747561E+00   0.150000000E+01   0.118671148E+00   0.384287860E+04  -0.124522095E+02  -0.324033383E-02
 0.785398163E+00   0.427476894E+00   0.205627298E+01   0.325839909E+00   0.150000000E+01   0.118671148E+00   0.382428088E+04  -0.129311659E+02  -0.338133267E-02
 0.816814090E+00   0.431234196E+00   0.204920129E+01   0.337924298E+00   0.150000000E+01   0.118671148E+00   0.380500469E+04  -0.135222181E+02  -0.355379802E-02
 0.848230016E+00   0.435132079E+00   0.204175917E+01   0.349965488E+00   0.150000000E+01   0.118671148E+00   0.378353970E+04  -0.139484604E+02  -0.368661664E-02
 0.879645943E+00   0.439206773E+00   0.203396210E+01   0.361982733E+00   0.150000000E+01   0.118671148E+00   0.376127589E+04  -0.144470700E+02  -0.384100247E-02
 0.911061870E+00   0.443418629E+00   0.202577557E+01   0.373937550E+00   0.150000000E+01   0.118671148E+00   0.373666067E+04  -0.149753803E+02  -0.400769071E-02
 0.942477796E+00   0.447794977E+00   0.201720845E+01   0.385841844E+00   0.150000000E+01   0.118671148E+00   0.371092046E+04  -0.155751086E+02  -0.419710118E-02
 0.973893723E+00   0.452315756E+00   0.200824033E+01   0.397669673E+00   0.150000000E+01   0.118671148E+00   0.368335550E+04  -0.159699791E+02  -0.433571484E-02
 0.100530965E+01   0.456985428E+00   0.199886620E+01   0.409413657E+00   0.150000000E+01   0.118671148E+00   0.365433836E+04  -0.165215267E+02  -0.452107196E-02
 0.103672558E+01   0.461785731E+00   0.198906923E+01   0.421046484E+00   0.150000000E+01   0.118671148E+00   0.362330217E+04  -0.169649392E+02  -0.468217619E-02
 0.106814150E+01   0.466719394E+00   0.197884495E+01   0.432557421E+00   0.150000000E+01   0.118671148E+00   0.359080483E+04  -0.176036371E+02  -0.490242103E-02
 0.109955743E+01   0.471765849E+00   0.196817838E+01   0.443914547E+00   0.150000000E+01   0.118671148E+00   0.355624981E+04  -0.180795586E+02  -0.508388319E-02
 0.113097336E+01   0.476931232E+00   0.195706861E+01   0.455108379E+00   0.150000000E+01   0.118671148E+00   0.352043310E+04  -0.186762578E+02  -0.530510231E-02
 0.116238928E+01   0.482196344E+00   0.194550443E+01   0.466106023E+00   0.150000000E+01   0.118671148E+00   0.348278681E+04  -0.190066031E+02  -0.545729732E-02
 0.119380521E+01   0.487530281E+00   0.193347303E+01   0.476862289E+00   0.150000000E+01   0.118671148E+00   0.344339464E+04  -0.196635586E+02  -0.571051555E-02
 0.122522113E+01   0.492945799E+00   0.192098060E+01   0.487371321E+00   0.150000000E+01   0.118671148E+00   0.340302402E+04  -0.200985175E+02  -0.590607572E-02
 0.125663706E+01   0.498388749E+00   0.190801176E+01   0.497563966E+00   0.150000000E+01   0.118671148E+00   0.336063455E+04  -0.206866571E+02  -0.615558068E-02
 0.128805299E+01   0.503863112E+00   0.189457449E+01   0.507424662E+00   0.150000000E+01   0.118671148E+00   0.331737535E+04  -0.211940996E+02  -0.638881567E-02
 0.131946891E+01   0.509338017E+00   0.188066838E+01   0.516904325E+00   0.150000000E+01   0.118671148E+00   0.327327400E+04  -0.216730395E+02  -0.662121150E-02
 0.135088484E+01   0.514781504E+00   0.186629727E+01   0.525951997E+00   0.150000000E+01   0.118671148E+00   0.322845631E+04  -0.221496225E+02  -0.686074717E-02
 0.138230077E+01   0.520160915E+00   0.185146960E+01   0.534515533E+00   0.150000000E+01   0.118671148E+00   0.318304814E+04  -0.226344891E+02  -0.711094778E-02
 0.141371669E+01   0.525442553E+00   0.183619849E+01   0.542541581E+00   0.150000000E+01   0.118671148E+00   0.313753905E+04  -0.231237151E+02  -0.737001668E-02
 0.144513262E+01   0.530591298E+00   0.182050189E+01   0.549975525E+00   0.150000000E+01   0.118671148E+00   0.309245943E+04  -0.235774864E+02  -0.762418618E-02
 0.147654855E+01   0.535572268E+00   0.180440297E+01   0.556763477E+00   0.150000000E+01   0.118671148E+00   0.304812921E+04  -0.239929840E+02  -0.787138023E-02
 0.150796447E+01   0.540341493E+00   0.178792949E+01   0.562843351E+00   0.150000000E+01   0.118671148E+00   0.300517965E+04  -0.243831901E+02  -0.811372128E-02
 0.153938040E+01   0.544839550E+00   0.177111499E+01   0.568138802E+00   0.150000000E+01   0.118671148E+00   0.296428044E+04  -0.247796139E+02  -0.835940268E-02
 0.157079633E+01   0.549049550E+00   0.175400117E+01   0.572617648E+00   0.150000000E+01   0.118671148E+00   0.292627511E+04  -0.249907982E+02  -0.854013969E-02
 0.160221225E+01   0.552891424E+00   0.173663443E+01   0.576186704E+00   0.150000000E+01   0.118671148E+00   0.289132322E+04  -0.253371408E+02  -0.876316444E-02
 0.163362818E+01   0.556353668E+00   0.171906743E+01   0.578823929E+00   0.150000000E+01   0.118671148E+00   0.286074490E+04  -0.254991568E+02  -0.891346752E-02
 0.166504411E+01   0.559367047E+00   0.170136008E+01   0.580452654E+00   0.150000000E+01   0.118671148E+00   0.283514641E+04  -0.255537021E+02  -0.901318607E-02
 0.169646003E+01   0.561906112E+00   0.168357566E+01   0.581043412E+00   0.150000000E+01   0.118671148E+00   0.281521388E+04  -0.255339146E+02  -0.906997325E-02
 0.172787596E+01   0.563941631E+00   0.166578126E+01   0.580566671E+00   0.150000000E+01   0.118671148E+00   0.280165411E+04  -0.254975742E+02  -0.910090011E-02
 0.175929189E+01   0.565417042E+00   0.164805258E+01   0.578970050E+00   0.150000000E+01   0.118671148E+00   0.279509449E+04  -0.253885002E+02  -0.908323504E-02
 0.179070781E+01   0.566337809E+00   0.163045840E+01   0.576266658E+00   0.150000000E+01   0.118671148E+00   0.279631466E+04  -0.251410961E+02  -0.899079652E-02
 0.182212374E+01   0.566668491E+00   0.161307644E+01   0.572433656E+00   0.150000000E+01   0.118671148E+00   0.280567315E+04  -0.246691182E+02  -0.879258447E-02
 0.185353967E+01   0.566416435E+00   0.159597602E+01   0.567494224E+00   0.150000000E+01   0.118671148E+00   0.282329967E+04  -0.242492108E+02  -0.858896101E-02
 0.188495559E+01   0.565574567E+00   0.157922901E+01   0.561461475E+00   0.150000000E+01   0.118671148E+00   0.284933401E+04  -0.236936032E+02  -0.831548818E-02
 0.191637152E+01   0.564164683E+00   0.156289719E+01   0.554379799E+00   0.150000000E+01   0.118671148E+00   0.288383156E+04  -0.230767588E+02  -0.800211742E-02
 0.194778745E+01   0.562193618E+00   0.154704389E+01   0.546282504E+00   0.150000000E+01   0.118671148E+00   0.292633654E+04  -0.223226340E+02  -0.762818414E-02
 0.197920337E+01   0.559698018E+00   0.153171828E+01   0.537233543E+00   0.150000000E+01   0.118671148E+00   0.297646183E+04  -0.214940987E+02  -0.722135876E-02
 0.201061930E+01   0.556717999E+00   0.151696217E+01   0.527301604E+00   0.150000000E+01   0.118671148E+00   0.303364710E+04  -0.205622210E+02  -0.677805306E-02
 0.204203522E+01   0.553294120E+00   0.150281089E+01   0.516556769E+00   0.150000000E+01   0.118671148E+00   0.309710612E+04  -0.197617874E+02  -0.638072661E-02
 0.207345115E+01   0.549473186E+00   0.148929044E+01   0.505075121E+00   0.150000000E+01   0.118671148E+00   0.316608744E+04  -0.189213702E+02  -0.597626268E-02
 0.210486708E+01   0.545299808E+00   0.147642098E+01   0.492930560E+00   0.150000000E+01   0.118671148E+00   0.323960619E+04  -0.179271879E+02  -0.553375529E-02
 0.213628300E+01   0.540844122E+00   0.146420239E+01   0.480217894E+00   0.150000000E+01   0.118671148E+00   0.331708677E+04  -0.170980728E+02  -0.515454492E-02
 0.216769893E+01   0.536131329E+00   0.145265066E+01   0.466991905E+00   0.150000000E+01   0.118671148E+00   0.339724443E+04  -0.162015035E+02  -0.476901320E-02
 0.219911486E+01   0.531238634E+00   0.144174693E+01   0.453349181E+00   0.150000000E+01   0.118671148E+00   0.347957310E+04  -0.153156302E+02  -0.440158310E-02
 0.223053078E+01   0.526210075E+00   0.143148330E+01   0.439355626E+00   0.150000000E+01   0.118671148E+00   0.356319968E+04  -0.144146590E+02  -0.404542553E-02
 0.226194671E+01   0.521087073E+00   0.142184777E+01   0.425072588E+00   0.150000000E+01   0.118671148E+00   0.364730176E+04  -0.136309952E+02  -0.373728200E-02
 0.229336264E+01   0.515916753E+00   0.141281930E+01   0.410562966E+00   0.150000000E+01   0.118671148E+00   0.373124081E+04  -0.128987150E+02  -0.345695058E-02
 0.232477856E+01   0.510744050E+00   0.140437281E+01   0.395884487E+00   0.150000000E+01   0.118671148E+00   0.381452823E+04  -0.122233051E+02  -0.320440807E-02
 0.235619449E+01   0.505603258E+00   0.139648567E+01   0.381083591E+00   0.150000000E+01   0.118671148E+00   0.389651727E+04  -0.115336818E+02  -0.295999761E-02
 0.238761042E+01   0.500527226E+00   0.138913252E+01   0.366202562E+00   0.150000000E+01   0.118671148E+00   0.397670834E+04  -0.108098899E+02  -0.271830090E-02
 0.241902634E+01   0.495547913E+00   0.138228519E+01   0.351279813E+00   0.150000000E+01   0.118671148E+00   0.405487723E+04  -0.101561318E+02  -0.250467061E-02
 0.245044227E+01   0.490691750E+00   0.137591667E+01   0.336346791E+00   0.150000000E+01   0.118671148E+00   0.413079497E+04  -0.961075166E+01  -0.232661067E-02
 0.248185820E+01   0.485975528E+00   0.137000517E+01   0.321425927E+00   0.150000000E+01   0.118671148E+00   0.420369784E+04  -0.891262123E+01  -0.212018598E-02
 0.251327412E+01   0.481421941E+00   0.136452263E+01   0.306540815E+00   0.150000000E+01   0.118671148E+00   0.427378593E+04  -0.830880083E+01  -0.194413126E-02
 0.254469005E+01   0.477043745E+00   0.135944755E+01   0.291706457E+00   0.150000000E+01   0.118671148E+00   0.434078284E+04  -0.780647649E+01  -0.179840291E-02
 0.257610598E+01   0.472858305E+00   0.135475369E+01   0.276938248E+00   0.150000000E+01   0.118671148E+00   0.440459356E+04  -0.732662935E+01  -0.166340645E-02
 0.260752190E+01   0.468877153E+00   0.135041890E+01   0.262245988E+00   0.150000000E+01   0.118671148E+00   0.446514609E+04  -0.687346974E+01  -0.153936055E-02
 0.263893783E+01   0.465110273E+00   0.134642193E+01   0.247636681E+00   0.150000000E+01   0.118671148E+00   0.452242764E+04  -0.646191539E+01  -0.142885988E-02
 0.267035376E+01   0.461563126E+00   0.134274541E+01   0.233113372E+00   0.150000000E+01   0.118671148E+00   0.457595865E+04  -0.593197049E+01  -0.129633394E-02
 0.270176968E+01   0.458244577E+00   0.133936908E+01   0.218679149E+00   0.150000000E+01   0.118671148E+00   0.462614927E+04  -0.544146271E+01  -0.117624019E-02
 0.273318561E+01   0.455159877E+00   0.133627608E+01   0.204333883E+00   0.150000000E+01   0.118671148E+00   0.467316832E+04  -0.504787857E+01  -0.108018334E-02
 0.276460154E+01   0.452301443E+00   0.133346192E+01   0.190071364E+00   0.150000000E+01   0.118671148E+00   0.471618864E+04  -0.462817438E+01  -0.981337842E-03
 0.279601746E+01   0.449684230E+00   0.133090192E+01   0.175893199E+00   0.150000000E+01   0.118671148E+00   0.475602430E+04  -0.427245611E+01  -0.898325123E-03
 0.282743339E+01   0.447309202E+00   0.132858484E+01   0.161794243E+00   0.150000000E+01   0.118671148E+00   0.479224646E+04  -0.386367751E+01  -0.806235143E-03
 0.285884931E+01   0.445180263E+00   0.132649737E+01   0.147769432E+00   0.150000000E+01   0.118671148E+00   0.482535421E+04  -0.350986756E+01  -0.727380294E-03
 0.289026524E+01   0.443294620E+00   0.132463346E+01   0.133810987E+00   0.150000000E+01   0.118671148E+00   0.485463524E+04  -0.308183675E+01  -0.634823545E-03
 0.292168117E+01   0.441646799E+00   0.132299065E+01   0.119910362E+00   0.150000000E+01   0.118671148E+00   0.488063473E+04  -0.276950863E+01  -0.567448453E-03
 0.295309709E+01   0.440247657E+00   0.132155151E+01   0.106062283E+00   0.150000000E+01   0.118671148E+00   0.490328460E+04  -0.243799874E+01  -0.497217466E-03
 0.298451302E+01   0.439097519E+00   0.132030967E+01   0.922580835E-01   0.150000000E+01   0.118671148E+00   0.492230940E+04  -0.205984236E+01  -0.418470720E-03
 0.301592895E+01   0.438198515E+00   0.131925798E+01   0.784889348E-01   0.150000000E+01   0.118671148E+00   0.493816865E+04  -0.170132648E+01  -0.344525796E-03
 0.304734487E+01   0.437536829E+00   0.131840614E+01   0.647439510E-01   0.150000000E+01   0.118671148E+00   0.495046747E+04  -0.138843063E+01  -0.280464550E-03
 0.307876080E+01   0.437126839E+00   0.131773690E+01   0.510155193E-01   0.150000000E+01   0.118671148E+00   0.495946397E+04  -0.106444440E+01  -0.214628921E-03
 0.311017673E+01   0.436969702E+00   0.131724708E+01   0.372936480E-01   0.150000000E+01   0.118671148E+00   0.496511881E+04  -0.730870409E+00  -0.147200991E-03
 0.314159265E+01   0.437065907E+00   0.131693526E+01   0.235680980E-01   0.150000000E+01   0.118671148E+00   0.496730367E+04  -0.394143579E+00  -0.793475908E-04
 0.317300858E+01   0.437401627E+00   0.131681537E+01   0.982898089E-02   0.150000000E+01   0.118671148E+00   0.496569537E+04  -0.666208220E-01  -0.134162121E-04
 0.320442451E+01   0.437992905E+00   0.131687254E+01  -0.393370405E-02   0.150000000E+01   0.118671148E+00   0.496069272E+04   0.267373155E+00   0.538983505E-04
 0.323584043E+01   0.438840614E+00   0.131710814E+01  -0.177304520E-01   0.150000000E+01   0.118671148E+00   0.495223741E+04   0.603535628E+00   0.121871303E-03
 0.326725636E+01   0.439945084E+00   0.131752518E+01  -0.315716420E-01   0.150000000E+01   0.118671148E+00   0.494009655E+04   0.922545285E+00   0.186746408E-03
 0.329867229E+01   0.441295156E+00   0.131813909E+01  -0.454656737E-01   0.150000000E+01   0.118671148E+00   0.492404655E+04   0.125363270E+01   0.254593998E-03
 0.333008821E+01   0.442903424E+00   0.131894278E+01  -0.594237278E-01   0.150000000E+01   0.118671148E+00   0.490434558E+04   0.158757698E+01   0.323708219E-03
 0.336150414E+01   0.444771904E+00   0.131994081E+01  -0.734558869E-01   0.150000000E+01   0.118671148E+00   0.488099974E+04   0.192796080E+01   0.394993014E-03
 0.339292007E+01   0.446901290E+00   0.132114010E+01  -0.875717334E-01   0.150000000E+01   0.118671148E+00   0.485399461E+04   0.228856005E+01   0.471479725E-03
 0.342433599E+01   0.449288794E+00   0.132255198E+01  -0.101779479E+00   0.150000000E+01   0.118671148E+00   0.482298308E+04   0.264517495E+01   0.548452048E-03
 0.345575192E+01   0.451928006E+00   0.132419209E+01  -0.116085336E+00   0.150000000E+01   0.118671148E+00   0.478763128E+04   0.298993902E+01   0.624513220E-03
 0.348716785E+01   0.454829284E+00   0.132606104E+01  -0.130499828E+00   0.150000000E+01   0.118671148E+00   0.474861191E+04   0.341046049E+01   0.718201561E-03
 0.351858377E+01   0.457989458E+00   0.132817334E+01  -0.145029066E+00   0.150000000E+01   0.118671148E+00   0.470534640E+04   0.378764240E+01   0.804965689E-03
 0.354999970E+01   0.461407538E+00   0.133054226E+01  -0.159678932E+00   0.150000000E+01   0.118671148E+00   0.465804954E+04   0.418679136E+01   0.898829288E-03
 0.358141563E+01   0.465080345E+00   0.133318389E+01  -0.174453482E+00   0.150000000E+01   0.118671148E+00   0.460658774E+04   0.459010415E+01   0.996421737E-03
 0.361283155E+01   0.469004410E+00   0.133611518E+01  -0.189355448E+00   0.150000000E+01   0.118671148E+00   0.455108179E+04   0.504748611E+01   0.110907392E-02
 0.364424748E+01   0.473172085E+00   0.133935731E+01  -0.204384292E+00   0.150000000E+01   0.118671148E+00   0.449112209E+04   0.542176525E+01   0.120721841E-02
 0.367566340E+01   0.477576557E+00   0.134293095E+01  -0.219538149E+00   0.150000000E+01   0.118671148E+00   0.442718010E+04   0.592700637E+01   0.133877688E-02
 0.370707933E+01   0.482209750E+00   0.134685801E+01  -0.234812807E+00   0.150000000E+01   0.118671148E+00   0.435922544E+04   0.650376764E+01   0.149195487E-02
 0.373849526E+01   0.487059259E+00   0.135116391E+01  -0.250199815E+00   0.150000000E+01   0.118671148E+00   0.428713925E+04   0.704592726E+01   0.164350324E-02
 0.376991118E+01   0.492111136E+00   0.135587489E+01  -0.265687570E+00   0.150000000E+01   0.118671148E+00   0.421114693E+04   0.759345573E+01   0.180317995E-02
 0.380132711E+01   0.497348184E+00   0.136101901E+01  -0.281260112E+00   0.150000000E+01   0.118671148E+00   0.413155954E+04   0.820839445E+01   0.198675449E-02
 0.383274304E+01   0.502746834E+00   0.136662807E+01  -0.296894795E+00   0.150000000E+01   0.118671148E+00   0.404847736E+04   0.881573959E+01   0.217754449E-02
 0.386415896E+01   0.508280007E+00   0.137273471E+01  -0.312563501E+00   0.150000000E+01   0.118671148E+00   0.396221899E+04   0.940303264E+01   0.237317338E-02
 0.389557489E+01   0.513919990E+00   0.137936962E+01  -0.328234344E+00   0.150000000E+01   0.118671148E+00   0.387341930E+04   0.101083026E+02   0.260965877E-02
 0.392699082E+01   0.519629909E+00   0.138656733E+01  -0.343865734E+00   0.150000000E+01   0.118671148E+00   0.378249960E+04   0.108986174E+02   0.288132677E-02
 0.395840674E+01   0.525365030E+00   0.139436406E+01  -0.359406527E+00   0.150000000E+01   0.118671148E+00   0.368988661E+04   0.116555448E+02   0.315878128E-02
 0.398982267E+01   0.531080609E+00   0.140279126E+01  -0.374801346E+00   0.150000000E+01   0.118671148E+00   0.359640941E+04   0.124636790E+02   0.346558960E-02
 0.402123860E+01   0.536723418E+00   0.141188078E+01  -0.389984403E+00   0.150000000E+01   0.118671148E+00   0.350297922E+04   0.133699480E+02   0.381673632E-02
 0.405265452E+01   0.542242083E+00   0.142165717E+01  -0.404887202E+00   0.150000000E+01   0.118671148E+00   0.341033828E+04   0.142996820E+02   0.419303916E-02
 0.408407045E+01   0.547567723E+00   0.143214893E+01  -0.419423495E+00   0.150000000E+01   0.118671148E+00   0.331960071E+04   0.152318167E+02   0.458844842E-02
 0.411548638E+01   0.552638981E+00   0.144337198E+01  -0.433508868E+00   0.150000000E+01   0.118671148E+00   0.323194297E+04   0.161906378E+02   0.500956791E-02
 0.414690230E+01   0.557394843E+00   0.145533407E+01  -0.447055933E+00   0.150000000E+01   0.118671148E+00   0.314839056E+04   0.171801340E+02   0.545679886E-02
 0.417831823E+01   0.561752632E+00   0.146804581E+01  -0.459956001E+00   0.150000000E+01   0.118671148E+00   0.307018438E+04   0.182895465E+02   0.595714923E-02
 0.420973416E+01   0.565658037E+00   0.148149333E+01  -0.472121819E+00   0.150000000E+01   0.118671148E+00   0.299859462E+04   0.191765586E+02   0.639518207E-02
 0.424115008E+01   0.569050220E+00   0.149565777E+01  -0.483459360E+00   0.150000000E+01   0.118671148E+00   0.293465781E+04   0.202931987E+02   0.691501360E-02
 0.427256601E+01   0.571875145E+00   0.151050857E+01  -0.493880003E+00   0.150000000E+01   0.118671148E+00   0.287945150E+04   0.211494678E+02   0.734496405E-02
 0.430398194E+01   0.574084440E+00   0.152600474E+01  -0.503300552E+00   0.150000000E+01   0.118671148E+00   0.283375141E+04   0.220197428E+02   0.777052734E-02
 0.433539786E+01   0.575647990E+00   0.154209101E+01  -0.511655867E+00   0.150000000E+01   0.118671148E+00   0.279815557E+04   0.229136227E+02   0.818883086E-02
 0.436681379E+01   0.576532225E+00   0.155870784E+01  -0.518879985E+00   0.150000000E+01   0.118671148E+00   0.277302652E+04   0.235793426E+02   0.850310753E-02
 0.439822972E+01   0.576730475E+00   0.157578165E+01  -0.524935178E+00   0.150000000E+01   0.118671148E+00   0.275834541E+04   0.242519958E+02   0.879222585E-02
 0.442964564E+01   0.576249897E+00   0.159323257E+01  -0.529801039E+00   0.150000000E+01   0.118671148E+00   0.275390608E+04   0.248405382E+02   0.902011089E-02
 0.446106157E+01   0.575103759E+00   0.161097868E+01  -0.533467719E+00   0.150000000E+01   0.118671148E+00   0.275936210E+04   0.250940812E+02   0.909416028E-02
 0.449247749E+01   0.573305429E+00   0.162893846E+01  -0.535930279E+00   0.150000000E+01   0.118671148E+00   0.277369633E+04   0.254181572E+02   0.916400143E-02
 0.452389342E+01   0.570911921E+00   0.164702294E+01  -0.537231404E+00   0.150000000E+01   0.118671148E+00   0.279616461E+04   0.256167535E+02   0.916138965E-02
 0.455530935E+01   0.567956727E+00   0.166515316E+01  -0.537396140E+00   0.150000000E+01   0.118671148E+00   0.282576130E+04   0.256589360E+02   0.908036215E-02
 0.458672527E+01   0.564481164E+00   0.168325292E+01  -0.536461963E+00   0.150000000E+01   0.118671148E+00   0.286135557E+04   0.255910359E+02   0.894367556E-02
 0.461814120E+01   0.560557205E+00   0.170124807E+01  -0.534501335E+00   0.150000000E+01   0.118671148E+00   0.290200128E+04   0.253598510E+02   0.873874564E-02
 0.464955713E+01   0.556237817E+00   0.171907471E+01  -0.531572110E+00   0.150000000E+01   0.118671148E+00   0.294618780E+04   0.252586055E+02   0.857331820E-02
 0.468097305E+01   0.551565333E+00   0.173667608E+01  -0.527725071E+00   0.150000000E+01   0.118671148E+00   0.299338275E+04   0.249965617E+02   0.835060659E-02
 0.471238898E+01   0.546623882E+00   0.175400117E+01  -0.523055784E+00   0.150000000E+01   0.118671148E+00   0.304243213E+04   0.246941267E+02   0.811657439E-02
 0.474380491E+01   0.541429151E+00   0.177100787E+01  -0.517593890E+00   0.150000000E+01   0.118671148E+00   0.309267961E+04   0.243551827E+02   0.787510695E-02
 0.477522083E+01   0.536069072E+00   0.178766122E+01  -0.511443164E+00   0.150000000E+01   0.118671148E+00   0.314327042E+04   0.239701779E+02   0.762587201E-02
 0.480663676E+01   0.530569050E+00   0.180393212E+01  -0.504646268E+00   0.150000000E+01   0.118671148E+00   0.319347897E+04   0.236241193E+02   0.739761229E-02
 0.483805269E+01   0.524974247E+00   0.181979789E+01  -0.497266570E+00   0.150000000E+01   0.118671148E+00   0.324296025E+04   0.232639770E+02   0.717368552E-02
 0.486946861E+01   0.519330008E+00   0.183524228E+01  -0.489368096E+00   0.150000000E+01   0.118671148E+00   0.329133823E+04   0.228524535E+02   0.694321031E-02
 0.490088454E+01   0.513667846E+00   0.185025292E+01  -0.481001278E+00   0.150000000E+01   0.118671148E+00   0.333824320E+04   0.224218247E+02   0.671665404E-02
 0.493230047E+01   0.508016971E+00   0.186482164E+01  -0.472214179E+00   0.150000000E+01   0.118671148E+00   0.338341657E+04   0.219912194E+02   0.649970790E-02
 0.496371639E+01   0.502404153E+00   0.187894400E+01  -0.463052105E+00   0.150000000E+01   0.118671148E+00   0.342658975E+04   0.215615130E+02   0.629241158E-02
 0.499513232E+01   0.496853032E+00   0.189261874E+01  -0.453556732E+00   0.150000000E+01   0.118671148E+00   0.346743940E+04   0.210799693E+02   0.607940525E-02
 0.502654825E+01   0.491383053E+00   0.190584688E+01  -0.443764956E+00   0.150000000E+01   0.118671148E+00   0.350622775E+04   0.205633699E+02   0.586481297E-02
 0.505796417E+01   0.486001191E+00   0.191862820E+01  -0.433701077E+00   0.150000000E+01   0.118671148E+00   0.354269723E+04   0.202176549E+02   0.570685374E-02
 0.508938010E+01   0.480742610E+00   0.193097432E+01  -0.423415077E+00   0.150000000E+01   0.118671148E+00   0.357714413E+04   0.196800807E+02   0.550161805E-02
 0.512079603E+01   0.475588447E+00   0.194288011E+01  -0.412905399E+00   0.150000000E+01   0.118671148E+00   0.360871571E+04   0.192754274E+02   0.534135381E-02
 0.515221195E+01   0.470576026E+00   0.195436269E+01  -0.402221821E+00   0.150000000E+01   0.118671148E+00   0.363858701E+04   0.187898497E+02   0.516405122E-02
 0.518362788E+01   0.465699244E+00   0.196542420E+01  -0.391372966E+00   0.150000000E+01   0.118671148E+00   0.366618596E+04   0.182826560E+02   0.498683268E-02
 0.521504380E+01   0.460957112E+00   0.197606895E+01  -0.380371699E+00   0.150000000E+01   0.118671148E+00   0.369133982E+04   0.178279298E+02   0.482966366E-02
 0.524645973E+01   0.456370263E+00   0.198631253E+01  -0.369248967E+00   0.150000000E+01   0.118671148E+00   0.371491682E+04   0.175042089E+02   0.471187103E-02
 0.527787566E+01   0.451923979E+00   0.199615414E+01  -0.358003938E+00   0.150000000E+01   0.118671148E+00   0.373603142E+04   0.168930990E+02   0.452166940E-02
 0.530929158E+01   0.447637954E+00   0.200561102E+01  -0.346664558E+00   0.150000000E+01   0.118671148E+00   0.375575360E+04   0.164745663E+02   0.438648753E-02
 0.534070751E+01   0.443499992E+00   0.201468392E+01  -0.335230933E+00   0.150000000E+01   0.118671148E+00   0.377354091E+04   0.158662417E+02   0.420460307E-02
 0.537212344E+01   0.439515958E+00   0.202338360E+01  -0.323717639E+00   0.150000000E+01   0.118671148E+00   0.378974595E+04   0.154238197E+02   0.406988222E-02
 0.540353936E+01   0.435679772E+00   0.203171391E+01  -0.312128936E+00   0.150000000E+01   0.118671148E+00   0.380421490E+04   0.149862543E+02   0.393938164E-02
 0.543495529E+01   0.432001159E+00   0.203968866E+01  -0.300480754E+00   0.150000000E+01   0.118671148E+00   0.381755044E+04   0.144418534E+02   0.378301573E-02
 0.546637122E+01   0.428470251E+00   0.204730924E+01  -0.288773272E+00   0.150000000E+01   0.118671148E+00   0.382945086E+04   0.139650053E+02   0.364673834E-02
 0.549778714E+01   0.425088998E+00   0.205458448E+01  -0.277015215E+00   0.150000000E+01   0.118671148E+00   0.384019330E+04   0.134387657E+02   0.349950240E-02
 0.552920307E+01   0.421854450E+00   0.206151983E+01  -0.265211145E+00   0.150000000E+01   0.118671148E+00   0.384980058E+04   0.129690031E+02   0.336874672E-02
 0.556061900E+01   0.418769605E+00   0.206812488E+01  -0.253369211E+00   0.150000000E+01   0.118671148E+00   0.385873697E+04   0.123316718E+02   0.319577931E-02
 0.559203492E+01   0.415821543E+00   0.207439717E+01  -0.241486529E+00   0.150000000E+01   0.118671148E+00   0.386633267E+04   0.119061351E+02   0.307943888E-02
 0.562345085E+01   0.413017898E+00   0.208034933E+01  -0.229573485E+00   0.150000000E+01   0.118671148E+00   0.387331772E+04   0.114196396E+02   0.294828374E-02
 0.565486678E+01   0.410352655E+00   0.208598344E+01  -0.217631141E+00   0.150000000E+01   0.118671148E+00   0.387968133E+04   0.108594655E+02   0.279906120E-02
 0.568628270E+01   0.407828919E+00   0.209130854E+01  -0.205665759E+00   0.150000000E+01   0.118671148E+00   0.388554950E+04   0.103562582E+02   0.266532655E-02
 0.571769863E+01   0.405434222E+00   0.209632060E+01  -0.193674422E+00   0.150000000E+01   0.118671148E+00   0.389080996E+04   0.975933498E+01   0.250830421E-02
 0.574911456E+01   0.403181142E+00   0.210103612E+01  -0.181667801E+00   0.150000000E+01   0.118671148E+00   0.389575882E+04   0.930857858E+01   0.238941347E-02
 0.578053048E+01   0.401048309E+00   0.210544248E+01  -0.169638399E+00   0.150000000E+01   0.118671148E+00   0.390020641E+04   0.868506455E+01   0.222682177E-02