 TITLE="normal velocity for solution of GS equation with flow"
                   Variables ="theta", "r", "R [m] ","z [m]", "q", "psi", "vpol", "vnorm", "v_ratio"
 ZONE I=         201 ,F=Point
 0.000000000E+00   0.451774395E+00   0.220577556E+01   0.235680980E-01   0.200000000E+01   0.690150603E-01   0.233679623E+04  -0.811879296E-01  -0.347432646E-04
 0.314159265E-01   0.451702751E+00   0.220548103E+01   0.377564243E-01   0.200000000E+01   0.690150603E-01   0.234070326E+04  -0.244694980E+00  -0.104539086E-03
 0.628318531E-01   0.451788858E+00   0.220489852E+01   0.519361551E-01   0.200000000E+01   0.690150603E-01   0.234433125E+04  -0.398919049E+00  -0.170163260E-03
 0.942477796E-01   0.452036182E+00   0.220403120E+01   0.661084607E-01   0.200000000E+01   0.690150603E-01   0.234760100E+04  -0.561204494E+00  -0.239054462E-03
 0.125663706E+00   0.452447930E+00   0.220288141E+01   0.802748600E-01   0.200000000E+01   0.690150603E-01   0.235045418E+04  -0.739071909E+00  -0.314437914E-03
 0.157079633E+00   0.453027105E+00   0.220145076E+01   0.944371509E-01   0.200000000E+01   0.690150603E-01   0.235284237E+04  -0.930495172E+00  -0.395477056E-03
 0.188495559E+00   0.453761101E+00   0.219972491E+01   0.108594450E+00   0.200000000E+01   0.690150603E-01   0.235467101E+04  -0.106908047E+01  -0.454025408E-03
 0.219911486E+00   0.454665966E+00   0.219771730E+01   0.122750406E+00   0.200000000E+01   0.690150603E-01   0.235599826E+04  -0.121231996E+01  -0.514567425E-03
 0.251327412E+00   0.455746592E+00   0.219542964E+01   0.136907666E+00   0.200000000E+01   0.690150603E-01   0.235678831E+04  -0.133939865E+01  -0.568315214E-03
 0.282743339E+00   0.457003806E+00   0.219285904E+01   0.151068095E+00   0.200000000E+01   0.690150603E-01   0.235705707E+04  -0.155148683E+01  -0.658230488E-03
 0.314159265E+00   0.458441424E+00   0.219000487E+01   0.165234289E+00   0.200000000E+01   0.690150603E-01   0.235675849E+04  -0.175262604E+01  -0.743659586E-03
 0.345575192E+00   0.460048555E+00   0.218685200E+01   0.179403989E+00   0.200000000E+01   0.690150603E-01   0.235584695E+04  -0.186675863E+01  -0.792393848E-03
 0.376991118E+00   0.461837327E+00   0.218340665E+01   0.193581757E+00   0.200000000E+01   0.690150603E-01   0.235433459E+04  -0.200999072E+01  -0.853740472E-03
 0.408407045E+00   0.463813883E+00   0.217966850E+01   0.207770803E+00   0.200000000E+01   0.690150603E-01   0.235222421E+04  -0.214497450E+01  -0.911892025E-03
 0.439822972E+00   0.465979839E+00   0.217563233E+01   0.221972664E+00   0.200000000E+01   0.690150603E-01   0.234950984E+04  -0.229420558E+01  -0.976461360E-03
 0.471238898E+00   0.468338470E+00   0.217129380E+01   0.236189314E+00   0.200000000E+01   0.690150603E-01   0.234612886E+04  -0.248184977E+01  -0.105784888E-02
 0.502654825E+00   0.470882151E+00   0.216663834E+01   0.250417304E+00   0.200000000E+01   0.690150603E-01   0.234205408E+04  -0.263145418E+01  -0.112356679E-02
 0.534070751E+00   0.473619102E+00   0.216166503E+01   0.264659836E+00   0.200000000E+01   0.690150603E-01   0.233727073E+04  -0.271880602E+01  -0.116323966E-02
 0.565486678E+00   0.476556580E+00   0.215637119E+01   0.278919883E+00   0.200000000E+01   0.690150603E-01   0.233174603E+04  -0.284832661E+01  -0.122154239E-02
 0.596902604E+00   0.479694535E+00   0.215074720E+01   0.293196423E+00   0.200000000E+01   0.690150603E-01   0.232547407E+04  -0.306870823E+01  -0.131960544E-02
 0.628318531E+00   0.483037966E+00   0.214478709E+01   0.307490691E+00   0.200000000E+01   0.690150603E-01   0.231839123E+04  -0.332135932E+01  -0.143261382E-02
 0.659734457E+00   0.486587922E+00   0.213848105E+01   0.321801268E+00   0.200000000E+01   0.690150603E-01   0.231048255E+04  -0.352310489E+01  -0.152483510E-02
 0.691150384E+00   0.490342262E+00   0.213181637E+01   0.336124019E+00   0.200000000E+01   0.690150603E-01   0.230171965E+04  -0.351025767E+01  -0.152505874E-02
 0.722566310E+00   0.494305846E+00   0.212478545E+01   0.350458419E+00   0.200000000E+01   0.690150603E-01   0.229200499E+04  -0.372724221E+01  -0.162619289E-02
 0.753982237E+00   0.498490247E+00   0.211738492E+01   0.364808154E+00   0.200000000E+01   0.690150603E-01   0.228138404E+04  -0.375980245E+01  -0.164803575E-02
 0.785398163E+00   0.502884670E+00   0.210959433E+01   0.379161258E+00   0.200000000E+01   0.690150603E-01   0.226973878E+04  -0.406195151E+01  -0.178961189E-02
 0.816814090E+00   0.507501723E+00   0.210141000E+01   0.393520932E+00   0.200000000E+01   0.690150603E-01   0.225708134E+04  -0.424383870E+01  -0.188023295E-02
 0.848230016E+00   0.512338860E+00   0.209281693E+01   0.407879148E+00   0.200000000E+01   0.690150603E-01   0.224335639E+04  -0.431989916E+01  -0.192564105E-02
 0.879645943E+00   0.517391336E+00   0.208379882E+01   0.422224974E+00   0.200000000E+01   0.690150603E-01   0.222846200E+04  -0.448192944E+01  -0.201122094E-02
 0.911061870E+00   0.522665577E+00   0.207434659E+01   0.436554923E+00   0.200000000E+01   0.690150603E-01   0.221245378E+04  -0.463320068E+01  -0.209414575E-02
 0.942477796E+00   0.528163706E+00   0.206444800E+01   0.450861512E+00   0.200000000E+01   0.690150603E-01   0.219522062E+04  -0.478967456E+01  -0.218186478E-02
 0.973893723E+00   0.533883827E+00   0.205408839E+01   0.465133040E+00   0.200000000E+01   0.690150603E-01   0.217674165E+04  -0.494073713E+01  -0.226978572E-02
 0.100530965E+01   0.539821035E+00   0.204325174E+01   0.479354073E+00   0.200000000E+01   0.690150603E-01   0.215697040E+04  -0.513379185E+01  -0.238009379E-02
 0.103672558E+01   0.545970861E+00   0.203192295E+01   0.493508163E+00   0.200000000E+01   0.690150603E-01   0.213584884E+04  -0.533174553E+01  -0.249631220E-02
 0.106814150E+01   0.552335568E+00   0.202009086E+01   0.507583445E+00   0.200000000E+01   0.690150603E-01   0.211347389E+04  -0.541664812E+01  -0.256291224E-02
 0.109955743E+01   0.558903164E+00   0.200773789E+01   0.521554464E+00   0.200000000E+01   0.690150603E-01   0.208967650E+04  -0.560603759E+01  -0.268272989E-02
 0.113097336E+01   0.565671106E+00   0.199485221E+01   0.535402617E+00   0.200000000E+01   0.690150603E-01   0.206455067E+04  -0.570910493E+01  -0.276530143E-02
 0.116238928E+01   0.572618230E+00   0.198141529E+01   0.549091127E+00   0.200000000E+01   0.690150603E-01   0.203797966E+04  -0.595693123E+01  -0.292295912E-02
 0.119380521E+01   0.579743884E+00   0.196741912E+01   0.562600330E+00   0.200000000E+01   0.690150603E-01   0.201014513E+04  -0.610513378E+01  -0.303716069E-02
 0.122522113E+01   0.587027129E+00   0.195284952E+01   0.575890634E+00   0.200000000E+01   0.690150603E-01   0.198095168E+04  -0.626889042E+01  -0.316458523E-02
 0.125663706E+01   0.594446686E+00   0.193769529E+01   0.588920492E+00   0.200000000E+01   0.690150603E-01   0.195043267E+04  -0.643220205E+01  -0.329783342E-02
 0.128805299E+01   0.601992071E+00   0.192195160E+01   0.601657282E+00   0.200000000E+01   0.690150603E-01   0.191882656E+04  -0.655025558E+01  -0.341367778E-02
 0.131946891E+01   0.609619788E+00   0.190560744E+01   0.614035560E+00   0.200000000E+01   0.690150603E-01   0.188605064E+04  -0.668075948E+01  -0.354219517E-02
 0.135088484E+01   0.617301639E+00   0.188866135E+01   0.626003114E+00   0.200000000E+01   0.690150603E-01   0.185230354E+04  -0.689938081E+01  -0.372475712E-02
 0.138230077E+01   0.625009391E+00   0.187111625E+01   0.637506854E+00   0.200000000E+01   0.690150603E-01   0.181777464E+04  -0.699918199E+01  -0.385041238E-02
 0.141371669E+01   0.632695958E+00   0.185297662E+01   0.648474519E+00   0.200000000E+01   0.690150603E-01   0.178266868E+04  -0.717867157E+01  -0.402692416E-02
 0.144513262E+01   0.640304709E+00   0.183425263E+01   0.658823813E+00   0.200000000E+01   0.690150603E-01   0.174712801E+04  -0.732647645E+01  -0.419343997E-02
 0.147654855E+01   0.647797882E+00   0.181496433E+01   0.668491030E+00   0.200000000E+01   0.690150603E-01   0.171158149E+04  -0.746801556E+01  -0.436322524E-02
 0.150796447E+01   0.655110541E+00   0.179513590E+01   0.677385928E+00   0.200000000E+01   0.690150603E-01   0.167640116E+04  -0.762854868E+01  -0.455055081E-02
 0.153938040E+01   0.662177999E+00   0.177480068E+01   0.685419352E+00   0.200000000E+01   0.690150603E-01   0.164189728E+04  -0.774983503E+01  -0.472004865E-02
 0.157079633E+01   0.668932305E+00   0.175400117E+01   0.692500403E+00   0.200000000E+01   0.690150603E-01   0.160855630E+04  -0.781368120E+01  -0.485757396E-02
 0.160221225E+01   0.675282008E+00   0.173279005E+01   0.698516895E+00   0.200000000E+01   0.690150603E-01   0.157685575E+04  -0.792442072E+01  -0.502545696E-02
 0.163362818E+01   0.681183563E+00   0.171122930E+01   0.703407500E+00   0.200000000E+01   0.690150603E-01   0.154750559E+04  -0.809006324E+01  -0.522780872E-02
 0.166504411E+01   0.686530520E+00   0.168939294E+01   0.707051772E+00   0.200000000E+01   0.690150603E-01   0.152090949E+04  -0.803695387E+01  -0.528430778E-02
 0.169646003E+01   0.691263574E+00   0.166736287E+01   0.709380852E+00   0.200000000E+01   0.690150603E-01   0.149797185E+04  -0.817820288E+01  -0.545951706E-02
 0.172787596E+01   0.695307786E+00   0.164523107E+01   0.710315491E+00   0.200000000E+01   0.690150603E-01   0.147914670E+04  -0.819928845E+01  -0.554325575E-02
 0.175929189E+01   0.698584377E+00   0.162309951E+01   0.709778625E+00   0.200000000E+01   0.690150603E-01   0.146512562E+04  -0.816298433E+01  -0.557152522E-02
 0.179070781E+01   0.701046362E+00   0.160107264E+01   0.707730994E+00   0.200000000E+01   0.690150603E-01   0.145650236E+04  -0.802540326E+01  -0.551005166E-02
 0.182212374E+01   0.702645871E+00   0.157926024E+01   0.704139057E+00   0.200000000E+01   0.690150603E-01   0.145393277E+04  -0.798103299E+01  -0.548927236E-02
 0.185353967E+01   0.703349643E+00   0.155777287E+01   0.698990319E+00   0.200000000E+01   0.690150603E-01   0.145765040E+04  -0.773981009E+01  -0.530978489E-02
 0.188495559E+01   0.703137399E+00   0.153671976E+01   0.692291503E+00   0.200000000E+01   0.690150603E-01   0.146817146E+04  -0.757963214E+01  -0.516263415E-02
 0.191637152E+01   0.702012451E+00   0.151620293E+01   0.684078113E+00   0.200000000E+01   0.690150603E-01   0.148547911E+04  -0.731897072E+01  -0.492701018E-02
 0.194778745E+01   0.699996042E+00   0.149631544E+01   0.674407958E+00   0.200000000E+01   0.690150603E-01   0.150963108E+04  -0.707316983E+01  -0.468536313E-02
 0.197920337E+01   0.697122002E+00   0.147714063E+01   0.663355040E+00   0.200000000E+01   0.690150603E-01   0.154044351E+04  -0.684557404E+01  -0.444389813E-02
 0.201061930E+01   0.693436120E+00   0.145875043E+01   0.651007858E+00   0.200000000E+01   0.690150603E-01   0.157741252E+04  -0.649767057E+01  -0.411919552E-02
 0.204203522E+01   0.689003515E+00   0.144120012E+01   0.637474725E+00   0.200000000E+01   0.690150603E-01   0.162021574E+04  -0.616091761E+01  -0.380252917E-02
 0.207345115E+01   0.683905189E+00   0.142452733E+01   0.622878783E+00   0.200000000E+01   0.690150603E-01   0.166824704E+04  -0.590105125E+01  -0.353727662E-02
 0.210486708E+01   0.678214492E+00   0.140876190E+01   0.607335815E+00   0.200000000E+01   0.690150603E-01   0.172071788E+04  -0.553021817E+01  -0.321390172E-02
 0.213628300E+01   0.672026900E+00   0.139391115E+01   0.590979177E+00   0.200000000E+01   0.690150603E-01   0.177696476E+04  -0.518379222E+01  -0.291721723E-02
 0.216769893E+01   0.665431368E+00   0.137997326E+01   0.573933456E+00   0.200000000E+01   0.690150603E-01   0.183623169E+04  -0.484831245E+01  -0.264035987E-02
 0.219911486E+01   0.658515179E+00   0.136693566E+01   0.556318069E+00   0.200000000E+01   0.690150603E-01   0.189788891E+04  -0.458641633E+01  -0.241658840E-02
 0.223053078E+01   0.651362788E+00   0.135477632E+01   0.538245670E+00   0.200000000E+01   0.690150603E-01   0.196113890E+04  -0.429592370E+01  -0.219052495E-02
 0.226194671E+01   0.644058270E+00   0.134346297E+01   0.519823524E+00   0.200000000E+01   0.690150603E-01   0.202525807E+04  -0.397190282E+01  -0.196118356E-02
 0.229336264E+01   0.636675016E+00   0.133296042E+01   0.501145075E+00   0.200000000E+01   0.690150603E-01   0.208978351E+04  -0.373944998E+01  -0.178939587E-02
 0.232477856E+01   0.629279227E+00   0.132322989E+01   0.482292913E+00   0.200000000E+01   0.690150603E-01   0.215411889E+04  -0.351418800E+01  -0.163138070E-02
 0.235619449E+01   0.621934723E+00   0.131422691E+01   0.463342358E+00   0.200000000E+01   0.690150603E-01   0.221765708E+04  -0.318164807E+01  -0.143468893E-02
 0.238761042E+01   0.614688030E+00   0.130591288E+01   0.444351010E+00   0.200000000E+01   0.690150603E-01   0.228027312E+04  -0.305754147E+01  -0.134086634E-02
 0.241902634E+01   0.607594035E+00   0.129823815E+01   0.425377243E+00   0.200000000E+01   0.690150603E-01   0.234131161E+04  -0.284781717E+01  -0.121633411E-02
 0.245044227E+01   0.600681398E+00   0.129116819E+01   0.406456831E+00   0.200000000E+01   0.690150603E-01   0.240064198E+04  -0.264109665E+01  -0.110016265E-02
 0.248185820E+01   0.593988142E+00   0.128465846E+01   0.387627620E+00   0.200000000E+01   0.690150603E-01   0.245797141E+04  -0.245126170E+01  -0.997270225E-03
 0.251327412E+01   0.587544799E+00   0.127866744E+01   0.368918266E+00   0.200000000E+01   0.690150603E-01   0.251310336E+04  -0.227486264E+01  -0.905200589E-03
 0.254469005E+01   0.581363325E+00   0.127316685E+01   0.350342760E+00   0.200000000E+01   0.690150603E-01   0.256593253E+04  -0.220768017E+01  -0.860381225E-03
 0.257610598E+01   0.575471876E+00   0.126811419E+01   0.331921349E+00   0.200000000E+01   0.690150603E-01   0.261623441E+04  -0.205452847E+01  -0.785299840E-03
 0.260752190E+01   0.569882025E+00   0.126347976E+01   0.313661651E+00   0.200000000E+01   0.690150603E-01   0.266394455E+04  -0.185963390E+01  -0.698075305E-03
 0.263893783E+01   0.564597634E+00   0.125924049E+01   0.295565083E+00   0.200000000E+01   0.690150603E-01   0.270902362E+04  -0.171809857E+01  -0.634213211E-03
 0.267035376E+01   0.559636302E+00   0.125536157E+01   0.277637662E+00   0.200000000E+01   0.690150603E-01   0.275142598E+04  -0.155711923E+01  -0.565931716E-03
 0.270176968E+01   0.555002711E+00   0.125181970E+01   0.259876759E+00   0.200000000E+01   0.690150603E-01   0.279117886E+04  -0.142259644E+01  -0.509675842E-03
 0.273318561E+01   0.550696054E+00   0.124859732E+01   0.242275874E+00   0.200000000E+01   0.690150603E-01   0.282821331E+04  -0.137299997E+01  -0.485465492E-03
 0.276460154E+01   0.546721523E+00   0.124567235E+01   0.224829714E+00   0.200000000E+01   0.690150603E-01   0.286244122E+04  -0.120612620E+01  -0.421362783E-03
 0.279601746E+01   0.543082300E+00   0.124302547E+01   0.207530667E+00   0.200000000E+01   0.690150603E-01   0.289408529E+04  -0.115453285E+01  -0.398928414E-03
 0.282743339E+01   0.539783217E+00   0.124063682E+01   0.190370285E+00   0.200000000E+01   0.690150603E-01   0.292291621E+04  -0.990075706E+00  -0.338728734E-03
 0.285884931E+01   0.536820758E+00   0.123849558E+01   0.173336315E+00   0.200000000E+01   0.690150603E-01   0.294918935E+04  -0.941346071E+00  -0.319188075E-03
 0.289026524E+01   0.534191256E+00   0.123659251E+01   0.156416061E+00   0.200000000E+01   0.690150603E-01   0.297271267E+04  -0.786422682E+00  -0.264547156E-03
 0.292168117E+01   0.531896783E+00   0.123491418E+01   0.139597786E+00   0.200000000E+01   0.690150603E-01   0.299362731E+04  -0.713634990E+00  -0.238384714E-03
 0.295309709E+01   0.529938913E+00   0.123344893E+01   0.122868748E+00   0.200000000E+01   0.690150603E-01   0.301197525E+04  -0.657228017E+00  -0.218204986E-03
 0.298451302E+01   0.528319215E+00   0.123218644E+01   0.106215432E+00   0.200000000E+01   0.690150603E-01   0.302764247E+04  -0.536677335E+00  -0.177259151E-03
 0.301592895E+01   0.527035777E+00   0.123112122E+01   0.896231961E-01   0.200000000E+01   0.690150603E-01   0.304075613E+04  -0.443154125E+00  -0.145738134E-03
 0.304734487E+01   0.526088977E+00   0.123024699E+01   0.730774443E-01   0.200000000E+01   0.690150603E-01   0.305130179E+04  -0.361212953E+00  -0.118379950E-03
 0.307876080E+01   0.525479727E+00   0.122955835E+01   0.565632431E-01   0.200000000E+01   0.690150603E-01   0.305925148E+04  -0.281502735E+00  -0.920168666E-04
 0.311017673E+01   0.525209299E+00   0.122905103E+01   0.400653208E-01   0.200000000E+01   0.690150603E-01   0.306456916E+04  -0.199581319E+00  -0.651254085E-04
 0.314159265E+01   0.525279355E+00   0.122872181E+01   0.235680980E-01   0.200000000E+01   0.690150603E-01   0.306721077E+04  -0.114774413E+00  -0.374197998E-04
 0.317300858E+01   0.525688007E+00   0.122857255E+01   0.705583866E-02   0.200000000E+01   0.690150603E-01   0.306703870E+04  -0.310976846E-01  -0.101393193E-04
 0.320442451E+01   0.526441805E+00   0.122859817E+01  -0.948745646E-02   0.200000000E+01   0.690150603E-01   0.306408107E+04   0.535868920E-01   0.174887318E-04
 0.323584043E+01   0.527543687E+00   0.122879874E+01  -0.260781486E-01   0.200000000E+01   0.690150603E-01   0.305826441E+04   0.139467940E+00   0.456036239E-04
 0.326725636E+01   0.528997005E+00   0.122917546E+01  -0.427328071E-01   0.200000000E+01   0.690150603E-01   0.304950260E+04   0.217488984E+00   0.713194947E-04
 0.329867229E+01   0.530805250E+00   0.122973101E+01  -0.594681374E-01   0.200000000E+01   0.690150603E-01   0.303774034E+04   0.289280104E+00   0.952287132E-04
 0.333008821E+01   0.532972248E+00   0.123046932E+01  -0.763009424E-01   0.200000000E+01   0.690150603E-01   0.302291756E+04   0.357489768E+00   0.118259847E-03
 0.336150414E+01   0.535501935E+00   0.123139585E+01  -0.932480298E-01   0.200000000E+01   0.690150603E-01   0.300498299E+04   0.429524517E+00   0.142937420E-03
 0.339292007E+01   0.538396416E+00   0.123251946E+01  -0.110325646E+00   0.200000000E+01   0.690150603E-01   0.298386967E+04   0.524958190E+00   0.175932010E-03
 0.342433599E+01   0.541656089E+00   0.123385224E+01  -0.127549133E+00   0.200000000E+01   0.690150603E-01   0.295946723E+04   0.656591453E+00   0.221861370E-03
 0.345575192E+01   0.545289792E+00   0.123539976E+01  -0.144935715E+00   0.200000000E+01   0.690150603E-01   0.293173206E+04   0.698602430E+00   0.238290000E-03
 0.348716785E+01   0.549302380E+00   0.123717312E+01  -0.162501448E+00   0.200000000E+01   0.690150603E-01   0.290072164E+04   0.798053289E+00   0.275122328E-03
 0.351858377E+01   0.553695213E+00   0.123918838E+01  -0.180260704E+00   0.200000000E+01   0.690150603E-01   0.286638913E+04   0.908143639E+00   0.316824966E-03
 0.354999970E+01   0.558461989E+00   0.124147009E+01  -0.198223903E+00   0.200000000E+01   0.690150603E-01   0.282855889E+04   0.977936608E+00   0.345736698E-03
 0.358141563E+01   0.563611834E+00   0.124402993E+01  -0.216406149E+00   0.200000000E+01   0.690150603E-01   0.278735521E+04   0.114707910E+01   0.411529574E-03
 0.361283155E+01   0.569146543E+00   0.124688788E+01  -0.234819025E+00   0.200000000E+01   0.690150603E-01   0.274264632E+04   0.119801281E+01   0.436809078E-03
 0.364424748E+01   0.575054123E+00   0.125007740E+01  -0.253466338E+00   0.200000000E+01   0.690150603E-01   0.269447455E+04   0.132399626E+01   0.491374567E-03
 0.367566340E+01   0.581331818E+00   0.125362444E+01  -0.272353874E+00   0.200000000E+01   0.690150603E-01   0.264298786E+04   0.152995816E+01   0.578874458E-03
 0.370707933E+01   0.587976627E+00   0.125755608E+01  -0.291485534E+00   0.200000000E+01   0.690150603E-01   0.258802729E+04   0.163047143E+01   0.630005501E-03
 0.373849526E+01   0.594967507E+00   0.126191510E+01  -0.310853248E+00   0.200000000E+01   0.690150603E-01   0.252975265E+04   0.177012054E+01   0.699720797E-03
 0.376991118E+01   0.602296238E+00   0.126673327E+01  -0.330452748E+00   0.200000000E+01   0.690150603E-01   0.246830043E+04   0.189204397E+01   0.766537147E-03
 0.380132711E+01   0.609929360E+00   0.127206243E+01  -0.350261909E+00   0.200000000E+01   0.690150603E-01   0.240390033E+04   0.212467593E+01   0.883845268E-03
 0.383274304E+01   0.617842924E+00   0.127794501E+01  -0.370259803E+00   0.200000000E+01   0.690150603E-01   0.233676547E+04   0.234429379E+01   0.100322168E-02
 0.386415896E+01   0.625994447E+00   0.128443580E+01  -0.390409457E+00   0.200000000E+01   0.690150603E-01   0.226709882E+04   0.246641697E+01   0.108791771E-02
 0.389557489E+01   0.634340672E+00   0.129158672E+01  -0.410667973E+00   0.200000000E+01   0.690150603E-01   0.219544171E+04   0.272338758E+01   0.124047364E-02
 0.392699082E+01   0.642821021E+00   0.129945806E+01  -0.430975005E+00   0.200000000E+01   0.690150603E-01   0.212212645E+04   0.289767269E+01   0.136545713E-02
 0.395840674E+01   0.651365727E+00   0.130811064E+01  -0.451257082E+00   0.200000000E+01   0.690150603E-01   0.204792737E+04   0.324482978E+01   0.158444573E-02
 0.398982267E+01   0.659897216E+00   0.131760331E+01  -0.471428109E+00   0.200000000E+01   0.690150603E-01   0.197325083E+04   0.348227045E+01   0.176473786E-02
 0.402123860E+01   0.668315882E+00   0.132800059E+01  -0.491378139E+00   0.200000000E+01   0.690150603E-01   0.189916732E+04   0.382137060E+01   0.201212951E-02
 0.405265452E+01   0.676523586E+00   0.133935509E+01  -0.510990404E+00   0.200000000E+01   0.690150603E-01   0.182625372E+04   0.405098372E+01   0.221819327E-02
 0.408407045E+01   0.684404907E+00   0.135171806E+01  -0.530127103E+00   0.200000000E+01   0.690150603E-01   0.175590281E+04   0.455715664E+01   0.259533535E-02
 0.411548638E+01   0.691836073E+00   0.136513161E+01  -0.548636078E+00   0.200000000E+01   0.690150603E-01   0.168868995E+04   0.483298742E+01   0.286197440E-02
 0.414690230E+01   0.698694889E+00   0.137962172E+01  -0.566359508E+00   0.200000000E+01   0.690150603E-01   0.162599407E+04   0.519269568E+01   0.319355143E-02
 0.417831823E+01   0.704859143E+00   0.139519867E+01  -0.583133790E+00   0.200000000E+01   0.690150603E-01   0.156892787E+04   0.566642678E+01   0.361165537E-02
 0.420973416E+01   0.710199875E+00   0.141185977E+01  -0.598784797E+00   0.200000000E+01   0.690150603E-01   0.151839617E+04   0.601700888E+01   0.396273976E-02
 0.424115008E+01   0.714618081E+00   0.142957135E+01  -0.613161275E+00   0.200000000E+01   0.690150603E-01   0.147540217E+04   0.638734164E+01   0.432922072E-02
 0.427256601E+01   0.718015478E+00   0.144828504E+01  -0.626111731E+00   0.200000000E+01   0.690150603E-01   0.144084014E+04   0.679874557E+01   0.471859812E-02
 0.430398194E+01   0.720324578E+00   0.146792578E+01  -0.637513115E+00   0.200000000E+01   0.690150603E-01   0.141507992E+04   0.710122590E+01   0.501825076E-02
 0.433539786E+01   0.721507604E+00   0.148839650E+01  -0.647272707E+00   0.200000000E+01   0.690150603E-01   0.139855044E+04   0.748259684E+01   0.535025167E-02
 0.436681379E+01   0.721533093E+00   0.150959055E+01  -0.655308513E+00   0.200000000E+01   0.690150603E-01   0.139111592E+04   0.772348001E+01   0.555200318E-02
 0.439822972E+01   0.720417934E+00   0.153137978E+01  -0.661590073E+00   0.200000000E+01   0.690150603E-01   0.139248592E+04   0.787221827E+01   0.565335573E-02
 0.442964564E+01   0.718207861E+00   0.155362756E+01  -0.666122376E+00   0.200000000E+01   0.690150603E-01   0.140211127E+04   0.801454397E+01   0.571605418E-02
 0.446106157E+01   0.714953623E+00   0.157619943E+01  -0.668923942E+00   0.200000000E+01   0.690150603E-01   0.141920212E+04   0.809035604E+01   0.570063694E-02
 0.449247749E+01   0.710740805E+00   0.159895786E+01  -0.670055767E+00   0.200000000E+01   0.690150603E-01   0.144283438E+04   0.818615748E+01   0.567366400E-02
 0.452389342E+01   0.705669945E+00   0.162177180E+01  -0.669602492E+00   0.200000000E+01   0.690150603E-01   0.147195506E+04   0.817340583E+01   0.555275500E-02
 0.455530935E+01   0.699821458E+00   0.164452497E+01  -0.667637396E+00   0.200000000E+01   0.690150603E-01   0.150550089E+04   0.803123339E+01   0.533459225E-02
 0.458672527E+01   0.693342469E+00   0.166710231E+01  -0.664307159E+00   0.200000000E+01   0.690150603E-01   0.154261946E+04   0.813436661E+01   0.527308700E-02
 0.461814120E+01   0.686310962E+00   0.168941360E+01  -0.659696991E+00   0.200000000E+01   0.690150603E-01   0.158216202E+04   0.790505184E+01   0.499636052E-02
 0.464955713E+01   0.678849027E+00   0.171137588E+01  -0.653941376E+00   0.200000000E+01   0.690150603E-01   0.162348644E+04   0.793478394E+01   0.488749629E-02
 0.468097305E+01   0.671050390E+00   0.173292296E+01  -0.647151169E+00   0.200000000E+01   0.690150603E-01   0.166572559E+04   0.785691928E+01   0.471681491E-02
 0.471238898E+01   0.663013495E+00   0.175400117E+01  -0.639445397E+00   0.200000000E+01   0.690150603E-01   0.170827192E+04   0.770012912E+01   0.450755470E-02
 0.474380491E+01   0.654803807E+00   0.177456905E+01  -0.630912603E+00   0.200000000E+01   0.690150603E-01   0.175046699E+04   0.760131438E+01   0.434244942E-02
 0.477522083E+01   0.646504597E+00   0.179459553E+01  -0.621660770E+00   0.200000000E+01   0.690150603E-01   0.179198327E+04   0.744585514E+01   0.415509188E-02
 0.480663676E+01   0.638186201E+00   0.181405979E+01  -0.611785810E+00   0.200000000E+01   0.690150603E-01   0.183241822E+04   0.730727461E+01   0.398777667E-02
 0.483805269E+01   0.629905052E+00   0.183294920E+01  -0.601369965E+00   0.200000000E+01   0.690150603E-01   0.187152997E+04   0.719989903E+01   0.384706586E-02
 0.486946861E+01   0.621688706E+00   0.185125471E+01  -0.590466588E+00   0.200000000E+01   0.690150603E-01   0.190893625E+04   0.706155552E+01   0.369920971E-02
 0.490088454E+01   0.613590103E+00   0.186897649E+01  -0.579153638E+00   0.200000000E+01   0.690150603E-01   0.194458728E+04   0.697686785E+01   0.358783991E-02
 0.493230047E+01   0.605643983E+00   0.188611831E+01  -0.567490016E+00   0.200000000E+01   0.690150603E-01   0.197840331E+04   0.678038436E+01   0.342720027E-02
 0.496371639E+01   0.597861281E+00   0.190268322E+01  -0.555510272E+00   0.200000000E+01   0.690150603E-01   0.201017314E+04   0.669636265E+01   0.333123676E-02
 0.499513232E+01   0.590271078E+00   0.191868155E+01  -0.543265491E+00   0.200000000E+01   0.690150603E-01   0.203995757E+04   0.657838987E+01   0.322476798E-02
 0.502654825E+01   0.582893448E+00   0.193412515E+01  -0.530796514E+00   0.200000000E+01   0.690150603E-01   0.206774312E+04   0.643004618E+01   0.310969293E-02
 0.505796417E+01   0.575731602E+00   0.194902329E+01  -0.518126695E+00   0.200000000E+01   0.690150603E-01   0.209345271E+04   0.629887374E+01   0.300884453E-02
 0.508938010E+01   0.568799389E+00   0.196339019E+01  -0.505288199E+00   0.200000000E+01   0.690150603E-01   0.211724758E+04   0.616131439E+01   0.291005853E-02
 0.512079603E+01   0.562099019E+00   0.197723761E+01  -0.492300876E+00   0.200000000E+01   0.690150603E-01   0.213906677E+04   0.603095561E+01   0.281943308E-02
 0.515221195E+01   0.555636841E+00   0.199057983E+01  -0.479187147E+00   0.200000000E+01   0.690150603E-01   0.215902821E+04   0.589866536E+01   0.273209277E-02
 0.518362788E+01   0.549410578E+00   0.200342835E+01  -0.465960311E+00   0.200000000E+01   0.690150603E-01   0.217722408E+04   0.570528957E+01   0.262044207E-02
 0.521504380E+01   0.543421159E+00   0.201579631E+01  -0.452635494E+00   0.200000000E+01   0.690150603E-01   0.219363141E+04   0.558653488E+01   0.254670628E-02
 0.524645973E+01   0.537668185E+00   0.202769654E+01  -0.439225506E+00   0.200000000E+01   0.690150603E-01   0.220844385E+04   0.549146064E+01   0.248657471E-02
 0.527787566E+01   0.532152268E+00   0.203914261E+01  -0.425742923E+00   0.200000000E+01   0.690150603E-01   0.222168025E+04   0.525879501E+01   0.236703505E-02
 0.530929158E+01   0.526859650E+00   0.205014022E+01  -0.412187284E+00   0.200000000E+01   0.690150603E-01   0.223343000E+04   0.514001042E+01   0.230139759E-02
 0.534070751E+01   0.521797113E+00   0.206070581E+01  -0.398574634E+00   0.200000000E+01   0.690150603E-01   0.224380517E+04   0.503672137E+01   0.224472313E-02
 0.537212344E+01   0.516958865E+00   0.207084890E+01  -0.384909540E+00   0.200000000E+01   0.690150603E-01   0.225291051E+04   0.499747008E+01   0.221822840E-02
 0.540353936E+01   0.512331505E+00   0.208057356E+01  -0.371190111E+00   0.200000000E+01   0.690150603E-01   0.226086094E+04   0.473879195E+01   0.209601212E-02
 0.543495529E+01   0.507917233E+00   0.208989286E+01  -0.357426241E+00   0.200000000E+01   0.690150603E-01   0.226771613E+04   0.454401414E+01   0.200378437E-02
 0.546637122E+01   0.503711881E+00   0.209881568E+01  -0.343622061E+00   0.200000000E+01   0.690150603E-01   0.227358639E+04   0.439838221E+01   0.193455689E-02
 0.549778714E+01   0.499710792E+00   0.210735006E+01  -0.329780792E+00   0.200000000E+01   0.690150603E-01   0.227857166E+04   0.428977024E+01   0.188265759E-02
 0.552920307E+01   0.495894462E+00   0.211549267E+01  -0.315895021E+00   0.200000000E+01   0.690150603E-01   0.228269746E+04   0.412330181E+01   0.180632864E-02
 0.556061900E+01   0.492269748E+00   0.212325815E+01  -0.301975727E+00   0.200000000E+01   0.690150603E-01   0.228618310E+04   0.387931475E+01   0.169685217E-02
 0.559203492E+01   0.488831886E+00   0.213065261E+01  -0.288025073E+00   0.200000000E+01   0.690150603E-01   0.228900765E+04   0.374997712E+01   0.163825452E-02
 0.562345085E+01   0.485576672E+00   0.213768201E+01  -0.274045269E+00   0.200000000E+01   0.690150603E-01   0.229131498E+04   0.364506458E+01   0.159081777E-02
 0.565486678E+01   0.482491247E+00   0.214434478E+01  -0.260033141E+00   0.200000000E+01   0.690150603E-01   0.229313430E+04   0.353313080E+01   0.154074308E-02
 0.568628270E+01   0.479569503E+00   0.215064379E+01  -0.245989948E+00   0.200000000E+01   0.690150603E-01   0.229463005E+04   0.324265314E+01   0.141314856E-02
 0.571769863E+01   0.476815471E+00   0.215658978E+01  -0.231922408E+00   0.200000000E+01   0.690150603E-01   0.229582168E+04   0.299027312E+01   0.130248492E-02
 0.574911456E+01   0.474222195E+00   0.216218414E+01  -0.217830639E+00   0.200000000E+01   0.690150603E-01   0.229680852E+04   0.290401806E+01   0.126437099E-02
 0.578053048E+01   0.471787513E+00   0.216743172E+01  -0.203717270E+00   0.200000000E+01   0.690150603E-01   0.229767224E+04   0.283886349E+01   0.123553893E-02