 TITLE="normal velocity for solution of GS equation with flow"
                   Variables ="theta", "r", "R [m] ","z [m]", "q", "psi", "vpol", "vnorm", "v_ratio"
 ZONE I=         201 ,F=Point
 0.000000000E+00   0.306839484E+00   0.136811741E+01   0.112936679E-01   0.300000000E+01   0.259218811E-01   0.638541984E+04  -0.131742576E+01  -0.206317798E-03
 0.314159265E-01   0.306899787E+00   0.136802628E+01   0.209336231E-01   0.300000000E+01   0.259218811E-01   0.638771685E+04  -0.456433109E+01  -0.714548123E-03
 0.628318531E-01   0.307174278E+00   0.136784607E+01   0.305813004E-01   0.300000000E+01   0.259218811E-01   0.638912050E+04  -0.779286074E+01  -0.121970790E-02
 0.942477796E-01   0.307663771E+00   0.136757628E+01   0.402473864E-01   0.300000000E+01   0.259218811E-01   0.638961153E+04  -0.110073429E+02  -0.172269360E-02
 0.125663706E+00   0.308368485E+00   0.136721484E+01   0.499424873E-01   0.300000000E+01   0.259218811E-01   0.638916583E+04  -0.142104655E+02  -0.222415036E-02
 0.157079633E+00   0.309294614E+00   0.136676461E+01   0.596780054E-01   0.300000000E+01   0.259218811E-01   0.638791553E+04  -0.173991986E+02  -0.272376780E-02
 0.188495559E+00   0.310445075E+00   0.136622417E+01   0.694652742E-01   0.300000000E+01   0.259218811E-01   0.638588275E+04  -0.205671790E+02  -0.322072606E-02
 0.219911486E+00   0.311820779E+00   0.136558905E+01   0.793152633E-01   0.300000000E+01   0.259218811E-01   0.638266990E+04  -0.237333984E+02  -0.371841232E-02
 0.251327412E+00   0.313401784E+00   0.136483362E+01   0.892335221E-01   0.300000000E+01   0.259218811E-01   0.637615203E+04  -0.269867310E+02  -0.423244786E-02
 0.282743339E+00   0.315214069E+00   0.136397601E+01   0.992355896E-01   0.300000000E+01   0.259218811E-01   0.636862261E+04  -0.302685547E+02  -0.475276313E-02
 0.314159265E+00   0.317267830E+00   0.136301757E+01   0.109334819E+00   0.300000000E+01   0.259218811E-01   0.636039596E+04  -0.335529914E+02  -0.527529915E-02
 0.345575192E+00   0.319569579E+00   0.136195480E+01   0.119544003E+00   0.300000000E+01   0.259218811E-01   0.635172870E+04  -0.367932162E+02  -0.579263032E-02
 0.376991118E+00   0.322127058E+00   0.136078409E+01   0.129876547E+00   0.300000000E+01   0.259218811E-01   0.634262469E+04  -0.399959977E+02  -0.630590641E-02
 0.408407045E+00   0.324919587E+00   0.135947438E+01   0.140334796E+00   0.300000000E+01   0.259218811E-01   0.632910431E+04  -0.434807634E+02  -0.686997105E-02
 0.439822972E+00   0.327979505E+00   0.135804266E+01   0.150940549E+00   0.300000000E+01   0.259218811E-01   0.631516823E+04  -0.469245841E+02  -0.743045671E-02
 0.471238898E+00   0.331325343E+00   0.135649097E+01   0.161712226E+00   0.300000000E+01   0.259218811E-01   0.630142150E+04  -0.502359973E+02  -0.797216902E-02
 0.502654825E+00   0.334939838E+00   0.135478795E+01   0.172652165E+00   0.300000000E+01   0.259218811E-01   0.628443689E+04  -0.538185280E+02  -0.856377890E-02
 0.534070751E+00   0.338843338E+00   0.135293463E+01   0.183778961E+00   0.300000000E+01   0.259218811E-01   0.626568036E+04  -0.574128896E+02  -0.916307349E-02
 0.565486678E+00   0.343065648E+00   0.135093784E+01   0.195117435E+00   0.300000000E+01   0.259218811E-01   0.624752725E+04  -0.608644969E+02  -0.974217388E-02
 0.596902604E+00   0.347571030E+00   0.134874718E+01   0.206657567E+00   0.300000000E+01   0.259218811E-01   0.622395520E+04  -0.647297557E+02  -0.104000999E-01
 0.628318531E+00   0.352426411E+00   0.134639689E+01   0.218444715E+00   0.300000000E+01   0.259218811E-01   0.620144059E+04  -0.683218741E+02  -0.110170973E-01
 0.659734457E+00   0.357598243E+00   0.134383597E+01   0.230468154E+00   0.300000000E+01   0.259218811E-01   0.617434611E+04  -0.723099697E+02  -0.117113567E-01
 0.691150384E+00   0.363145042E+00   0.134108599E+01   0.242771030E+00   0.300000000E+01   0.259218811E-01   0.614783464E+04  -0.760852704E+02  -0.123759461E-01
 0.722566310E+00   0.369037078E+00   0.133809673E+01   0.255342266E+00   0.300000000E+01   0.259218811E-01   0.611583540E+04  -0.801815957E+02  -0.131104895E-01
 0.753982237E+00   0.375331313E+00   0.133488268E+01   0.268225632E+00   0.300000000E+01   0.259218811E-01   0.608329984E+04  -0.843005461E+02  -0.138577003E-01
 0.785398163E+00   0.382039307E+00   0.133142051E+01   0.281436252E+00   0.300000000E+01   0.259218811E-01   0.604879099E+04  -0.884172724E+02  -0.146173463E-01
 0.816814090E+00   0.389134094E+00   0.132765855E+01   0.294960215E+00   0.300000000E+01   0.259218811E-01   0.600873212E+04  -0.927569825E+02  -0.154370307E-01
 0.848230016E+00   0.396663426E+00   0.132359616E+01   0.308835295E+00   0.300000000E+01   0.259218811E-01   0.596613547E+04  -0.971822838E+02  -0.162889838E-01
 0.879645943E+00   0.404665943E+00   0.131922171E+01   0.323094136E+00   0.300000000E+01   0.259218811E-01   0.592075955E+04  -0.101765838E+03  -0.171879701E-01
 0.911061870E+00   0.413155794E+00   0.131450403E+01   0.337750790E+00   0.300000000E+01   0.259218811E-01   0.587234450E+04  -0.106507453E+03  -0.181371262E-01
 0.942477796E+00   0.422125561E+00   0.130939711E+01   0.352800421E+00   0.300000000E+01   0.259218811E-01   0.581918576E+04  -0.111281411E+03  -0.191231928E-01
 0.973893723E+00   0.431611006E+00   0.130387930E+01   0.368270746E+00   0.300000000E+01   0.259218811E-01   0.576207836E+04  -0.116253127E+03  -0.201755547E-01
 0.100530965E+01   0.441668251E+00   0.129793561E+01   0.384206506E+00   0.300000000E+01   0.259218811E-01   0.570206322E+04  -0.121447307E+03  -0.212988356E-01
 0.103672558E+01   0.452254399E+00   0.129149415E+01   0.400568036E+00   0.300000000E+01   0.259218811E-01   0.563547550E+04  -0.126684850E+03  -0.224798865E-01
 0.106814150E+01   0.463431380E+00   0.128453770E+01   0.417401682E+00   0.300000000E+01   0.259218811E-01   0.556454943E+04  -0.132253009E+03  -0.237670652E-01
 0.109955743E+01   0.475210269E+00   0.127701888E+01   0.434709118E+00   0.300000000E+01   0.259218811E-01   0.548780855E+04  -0.137849759E+03  -0.251192725E-01
 0.113097336E+01   0.487605835E+00   0.126889040E+01   0.452492618E+00   0.300000000E+01   0.259218811E-01   0.540549302E+04  -0.143808370E+03  -0.266041172E-01
 0.116238928E+01   0.500622865E+00   0.126009924E+01   0.470742618E+00   0.300000000E+01   0.259218811E-01   0.531586790E+04  -0.149918875E+03  -0.282021445E-01
 0.119380521E+01   0.514296508E+00   0.125060310E+01   0.489474468E+00   0.300000000E+01   0.259218811E-01   0.522047809E+04  -0.156296117E+03  -0.299390428E-01
 0.122522113E+01   0.528630978E+00   0.124034529E+01   0.508672389E+00   0.300000000E+01   0.259218811E-01   0.511889231E+04  -0.162984390E+03  -0.318397771E-01
 0.125663706E+01   0.543606553E+00   0.122926159E+01   0.528294222E+00   0.300000000E+01   0.259218811E-01   0.500873261E+04  -0.169941561E+03  -0.339290543E-01
 0.128805299E+01   0.559217879E+00   0.121729474E+01   0.548307066E+00   0.300000000E+01   0.259218811E-01   0.489086207E+04  -0.177181986E+03  -0.362271484E-01
 0.131946891E+01   0.575460667E+00   0.120438918E+01   0.568675180E+00   0.300000000E+01   0.259218811E-01   0.476542891E+04  -0.184774153E+03  -0.387738768E-01
 0.135088484E+01   0.592294818E+00   0.119048304E+01   0.589324109E+00   0.300000000E+01   0.259218811E-01   0.463151230E+04  -0.192858113E+03  -0.416404191E-01
 0.138230077E+01   0.609676198E+00   0.117551986E+01   0.610170824E+00   0.300000000E+01   0.259218811E-01   0.448922230E+04  -0.201371959E+03  -0.448567582E-01
 0.141371669E+01   0.627536417E+00   0.115944625E+01   0.631104070E+00   0.300000000E+01   0.259218811E-01   0.433792236E+04  -0.210154010E+03  -0.484457748E-01
 0.144513262E+01   0.645727420E+00   0.114220903E+01   0.651929335E+00   0.300000000E+01   0.259218811E-01   0.417723829E+04  -0.219570286E+03  -0.525635052E-01
 0.147654855E+01   0.664201709E+00   0.112378483E+01   0.672547626E+00   0.300000000E+01   0.259218811E-01   0.400872320E+04  -0.229585896E+03  -0.572715762E-01
 0.150796447E+01   0.682746489E+00   0.110414794E+01   0.692692912E+00   0.300000000E+01   0.259218811E-01   0.383286792E+04  -0.240250545E+03  -0.626816654E-01
 0.153938040E+01   0.701179590E+00   0.108330251E+01   0.712127268E+00   0.300000000E+01   0.259218811E-01   0.365157848E+04  -0.251690087E+03  -0.689263804E-01
 0.157079633E+01   0.719228094E+00   0.106127793E+01   0.730521762E+00   0.300000000E+01   0.259218811E-01   0.346603040E+04  -0.263815197E+03  -0.761145076E-01
 0.160221225E+01   0.736540355E+00   0.103814264E+01   0.747470585E+00   0.300000000E+01   0.259218811E-01   0.328073082E+04  -0.276786550E+03  -0.843673452E-01
 0.163362818E+01   0.752816623E+00   0.101400818E+01   0.762624779E+00   0.300000000E+01   0.259218811E-01   0.310043126E+04  -0.290191914E+03  -0.935972740E-01
 0.166504411E+01   0.767643560E+00   0.989036289E+00   0.775530399E+00   0.300000000E+01   0.259218811E-01   0.293254407E+04  -0.303580496E+03  -0.103521205E+00
 0.169646003E+01   0.780593761E+00   0.963443589E+00   0.785732214E+00   0.300000000E+01   0.259218811E-01   0.278549586E+04  -0.316058894E+03  -0.113465936E+00
 0.172787596E+01   0.791234525E+00   0.937501580E+00   0.792786782E+00   0.300000000E+01   0.259218811E-01   0.266986362E+04  -0.326099590E+03  -0.122140916E+00
 0.175929189E+01   0.799182436E+00   0.911526074E+00   0.796320386E+00   0.300000000E+01   0.259218811E-01   0.259595671E+04  -0.331745638E+03  -0.127793209E+00
 0.179070781E+01   0.804171386E+00   0.885853377E+00   0.796098003E+00   0.300000000E+01   0.259218811E-01   0.257296865E+04  -0.330743874E+03  -0.128545629E+00
 0.182212374E+01   0.806013256E+00   0.860830584E+00   0.791984535E+00   0.300000000E+01   0.259218811E-01   0.260551801E+04  -0.321720537E+03  -0.123476612E+00
 0.185353967E+01   0.804650753E+00   0.836787526E+00   0.783994705E+00   0.300000000E+01   0.259218811E-01   0.269220688E+04  -0.305185145E+03  -0.113358727E+00
 0.188495559E+01   0.800236353E+00   0.813991297E+00   0.772363666E+00   0.300000000E+01   0.259218811E-01   0.282691646E+04  -0.282970328E+03  -0.100098582E+00
 0.191637152E+01   0.793044654E+00   0.792643632E+00   0.757454132E+00   0.300000000E+01   0.259218811E-01   0.299973809E+04  -0.257927005E+03  -0.859831749E-01
 0.194778745E+01   0.783399565E+00   0.772889315E+00   0.739680162E+00   0.300000000E+01   0.259218811E-01   0.319949264E+04  -0.232832182E+03  -0.727715950E-01
 0.197920337E+01   0.771777665E+00   0.754768058E+00   0.719596190E+00   0.300000000E+01   0.259218811E-01   0.341612770E+04  -0.209096922E+03  -0.612087546E-01
 0.201061930E+01   0.758620429E+00   0.738273061E+00   0.697713954E+00   0.300000000E+01   0.259218811E-01   0.364103932E+04  -0.187704729E+03  -0.515525135E-01
 0.204203522E+01   0.744354408E+00   0.723348100E+00   0.674518301E+00   0.300000000E+01   0.259218811E-01   0.386740265E+04  -0.168851413E+03  -0.436601585E-01
 0.207345115E+01   0.729371684E+00   0.709900441E+00   0.650446947E+00   0.300000000E+01   0.259218811E-01   0.409023925E+04  -0.152396088E+03  -0.372584776E-01
 0.210486708E+01   0.714022731E+00   0.697810787E+00   0.625883041E+00   0.300000000E+01   0.259218811E-01   0.430648214E+04  -0.138157717E+03  -0.320813398E-01
 0.213628300E+01   0.698569389E+00   0.686965733E+00   0.601115311E+00   0.300000000E+01   0.259218811E-01   0.451336157E+04  -0.125702567E+03  -0.278512070E-01
 0.216769893E+01   0.683243955E+00   0.677237859E+00   0.576391470E+00   0.300000000E+01   0.259218811E-01   0.470995832E+04  -0.114850168E+03  -0.243845403E-01
 0.219911486E+01   0.668205997E+00   0.668516299E+00   0.551883675E+00   0.300000000E+01   0.259218811E-01   0.489548693E+04  -0.105397139E+03  -0.215294495E-01
 0.223053078E+01   0.653578605E+00   0.660694992E+00   0.527722078E+00   0.300000000E+01   0.259218811E-01   0.506917371E+04  -0.969810979E+02  -0.191315397E-01
 0.226194671E+01   0.639466000E+00   0.653666960E+00   0.504010689E+00   0.300000000E+01   0.259218811E-01   0.523207397E+04  -0.895660948E+02  -0.171186599E-01
 0.229336264E+01   0.625930603E+00   0.647342594E+00   0.480811142E+00   0.300000000E+01   0.259218811E-01   0.538345061E+04  -0.828499046E+02  -0.153897399E-01
 0.232477856E+01   0.612983389E+00   0.641661924E+00   0.458139328E+00   0.300000000E+01   0.259218811E-01   0.552448593E+04  -0.768217249E+02  -0.139056784E-01
 0.235619449E+01   0.600665019E+00   0.636543621E+00   0.436027976E+00   0.300000000E+01   0.259218811E-01   0.565546968E+04  -0.713516975E+02  -0.126164053E-01
 0.238761042E+01   0.589009310E+00   0.631908621E+00   0.414498286E+00   0.300000000E+01   0.259218811E-01   0.577682834E+04  -0.663434731E+02  -0.114844114E-01
 0.241902634E+01   0.577983254E+00   0.627726293E+00   0.393520851E+00   0.300000000E+01   0.259218811E-01   0.588928502E+04  -0.617387685E+02  -0.104832366E-01
 0.245044227E+01   0.567589276E+00   0.623942876E+00   0.373088688E+00   0.300000000E+01   0.259218811E-01   0.599343362E+04  -0.574938340E+02  -0.959280400E-02
 0.248185820E+01   0.557806586E+00   0.620524259E+00   0.353177259E+00   0.300000000E+01   0.259218811E-01   0.608911665E+04  -0.535361180E+02  -0.879209926E-02
 0.251327412E+01   0.548632019E+00   0.617425302E+00   0.333771478E+00   0.300000000E+01   0.259218811E-01   0.617745442E+04  -0.498245225E+02  -0.806554272E-02
 0.254469005E+01   0.540050490E+00   0.614612660E+00   0.314847072E+00   0.300000000E+01   0.259218811E-01   0.625942840E+04  -0.463585219E+02  -0.740619094E-02
 0.257610598E+01   0.532031026E+00   0.612069277E+00   0.296370147E+00   0.300000000E+01   0.259218811E-01   0.633395543E+04  -0.430471647E+02  -0.679625318E-02
 0.260752190E+01   0.524563299E+00   0.609764252E+00   0.278318112E+00   0.300000000E+01   0.259218811E-01   0.640312387E+04  -0.399559888E+02  -0.624007745E-02
 0.263893783E+01   0.517632780E+00   0.607672866E+00   0.260665162E+00   0.300000000E+01   0.259218811E-01   0.646597757E+04  -0.369502493E+02  -0.571456503E-02
 0.267035376E+01   0.511206710E+00   0.605789415E+00   0.243376658E+00   0.300000000E+01   0.259218811E-01   0.652362237E+04  -0.341281303E+02  -0.523146931E-02
 0.270176968E+01   0.505287339E+00   0.604080276E+00   0.226434553E+00   0.300000000E+01   0.259218811E-01   0.657646224E+04  -0.313948110E+02  -0.477381453E-02
 0.273318561E+01   0.499836803E+00   0.602550391E+00   0.209802800E+00   0.300000000E+01   0.259218811E-01   0.662382168E+04  -0.287685608E+02  -0.434319675E-02
 0.276460154E+01   0.494859452E+00   0.601169247E+00   0.193463582E+00   0.300000000E+01   0.259218811E-01   0.666721586E+04  -0.262304184E+02  -0.393423867E-02
 0.279601746E+01   0.490325576E+00   0.599940025E+00   0.177385534E+00   0.300000000E+01   0.259218811E-01   0.670631259E+04  -0.237890718E+02  -0.354726559E-02
 0.282743339E+01   0.486231059E+00   0.598844713E+00   0.161547328E+00   0.300000000E+01   0.259218811E-01   0.674082455E+04  -0.213897341E+02  -0.317316287E-02
 0.285884931E+01   0.482565117E+00   0.597873694E+00   0.145925044E+00   0.300000000E+01   0.259218811E-01   0.677162538E+04  -0.190498941E+02  -0.281319373E-02
 0.289026524E+01   0.479304094E+00   0.597032055E+00   0.130491749E+00   0.300000000E+01   0.259218811E-01   0.679847555E+04  -0.167788020E+02  -0.246802418E-02
 0.292168117E+01   0.476454052E+00   0.596298434E+00   0.115228899E+00   0.300000000E+01   0.259218811E-01   0.682202489E+04  -0.145461723E+02  -0.213223677E-02
 0.295309709E+01   0.473998301E+00   0.595675442E+00   0.100112093E+00   0.300000000E+01   0.259218811E-01   0.684207454E+04  -0.123532047E+02  -0.180547649E-02
 0.298451302E+01   0.471925580E+00   0.595162536E+00   0.851190935E-01   0.300000000E+01   0.259218811E-01   0.685855424E+04  -0.101957549E+02  -0.148657495E-02
 0.301592895E+01   0.470240523E+00   0.594745393E+00   0.702304331E-01   0.300000000E+01   0.259218811E-01   0.687179649E+04  -0.805737361E+01  -0.117252797E-02
 0.304734487E+01   0.468932733E+00   0.594426337E+00   0.554241364E-01   0.300000000E+01   0.259218811E-01   0.688164894E+04  -0.593792596E+01  -0.862863830E-03
 0.307876080E+01   0.467991061E+00   0.594210342E+00   0.406790697E-01   0.300000000E+01   0.259218811E-01   0.688808561E+04  -0.383738272E+01  -0.557104388E-03
 0.311017673E+01   0.467424485E+00   0.594084090E+00   0.259758258E-01   0.300000000E+01   0.259218811E-01   0.689156011E+04  -0.174544734E+01  -0.253273180E-03
 0.314159265E+01   0.467231141E+00   0.594046789E+00   0.112936679E-01   0.300000000E+01   0.259218811E-01   0.689208309E+04   0.341616553E+00   0.495665169E-04
 0.317300858E+01   0.467393764E+00   0.594114796E+00  -0.338752505E-02   0.300000000E+01   0.259218811E-01   0.688905555E+04   0.242949488E+01   0.352660079E-03
 0.320442451E+01   0.467929457E+00   0.594271824E+00  -0.180878658E-01   0.300000000E+01   0.259218811E-01   0.688307034E+04   0.452316085E+01   0.657142907E-03
 0.323584043E+01   0.468839912E+00   0.594518745E+00  -0.328280655E-01   0.300000000E+01   0.259218811E-01   0.687411079E+04   0.662646811E+01   0.963974588E-03
 0.326725636E+01   0.470116191E+00   0.594868745E+00  -0.476275145E-01   0.300000000E+01   0.259218811E-01   0.686171823E+04   0.875043310E+01   0.127525392E-02
 0.329867229E+01   0.471768908E+00   0.595317280E+00  -0.625072489E-01   0.300000000E+01   0.259218811E-01   0.684579743E+04   0.108919227E+02   0.159103783E-02
 0.333008821E+01   0.473808389E+00   0.595861989E+00  -0.774891709E-01   0.300000000E+01   0.259218811E-01   0.682670020E+04   0.130550289E+02   0.191234835E-02
 0.336150414E+01   0.476230039E+00   0.596517051E+00  -0.925926966E-01   0.300000000E+01   0.259218811E-01   0.680400380E+04   0.152557689E+02   0.224217524E-02
 0.339292007E+01   0.479044464E+00   0.597283529E+00  -0.107839846E+00   0.300000000E+01   0.259218811E-01   0.677775818E+04   0.174991263E+02   0.258184576E-02
 0.342433599E+01   0.482268224E+00   0.598158799E+00  -0.123254877E+00   0.300000000E+01   0.259218811E-01   0.674816336E+04   0.197841381E+02   0.293178114E-02
 0.345575192E+01   0.485895482E+00   0.599163865E+00  -0.138856293E+00   0.300000000E+01   0.259218811E-01   0.671457667E+04   0.221421890E+02   0.329762993E-02
 0.348716785E+01   0.489948810E+00   0.600294516E+00  -0.154670573E+00   0.300000000E+01   0.259218811E-01   0.667695276E+04   0.245535805E+02   0.367736322E-02
 0.351858377E+01   0.494439277E+00   0.601559916E+00  -0.170721570E+00   0.300000000E+01   0.259218811E-01   0.663493702E+04   0.270181088E+02   0.407209726E-02
 0.354999970E+01   0.499369359E+00   0.602979390E+00  -0.187029820E+00   0.300000000E+01   0.259218811E-01   0.658852904E+04   0.295885876E+02   0.449092466E-02
 0.358141563E+01   0.504769905E+00   0.604548464E+00  -0.203626905E+00   0.300000000E+01   0.259218811E-01   0.653811123E+04   0.322542710E+02   0.493327046E-02
 0.361283155E+01   0.510633910E+00   0.606299784E+00  -0.220529276E+00   0.300000000E+01   0.259218811E-01   0.648176132E+04   0.350150917E+02   0.540209520E-02
 0.364424748E+01   0.517000647E+00   0.608226809E+00  -0.237773293E+00   0.300000000E+01   0.259218811E-01   0.642089335E+04   0.378911681E+02   0.590122995E-02
 0.367566340E+01   0.523864095E+00   0.610366086E+00  -0.255374853E+00   0.300000000E+01   0.259218811E-01   0.635428602E+04   0.409416079E+02   0.644314841E-02
 0.370707933E+01   0.531259279E+00   0.612720885E+00  -0.273369289E+00   0.300000000E+01   0.259218811E-01   0.628171911E+04   0.441095029E+02   0.702188400E-02
 0.373849526E+01   0.539195057E+00   0.615320172E+00  -0.291778911E+00   0.300000000E+01   0.259218811E-01   0.620319331E+04   0.474882526E+02   0.765545264E-02
 0.376991118E+01   0.547685231E+00   0.618191270E+00  -0.310627634E+00   0.300000000E+01   0.259218811E-01   0.611764475E+04   0.510668788E+02   0.834747371E-02
 0.380132711E+01   0.556755679E+00   0.621354639E+00  -0.329945815E+00   0.300000000E+01   0.259218811E-01   0.602515366E+04   0.548692796E+02   0.910670211E-02
 0.383274304E+01   0.566418356E+00   0.624845085E+00  -0.349754980E+00   0.300000000E+01   0.259218811E-01   0.592541848E+04   0.589673493E+02   0.995159236E-02
 0.386415896E+01   0.576673680E+00   0.628708618E+00  -0.370067479E+00   0.300000000E+01   0.259218811E-01   0.581715927E+04   0.633929547E+02   0.108975793E-01
 0.389557489E+01   0.587541016E+00   0.632978961E+00  -0.390905834E+00   0.300000000E+01   0.259218811E-01   0.570027705E+04   0.681710361E+02   0.119592496E-01
 0.392699082E+01   0.599019186E+00   0.637707401E+00  -0.412276861E+00   0.300000000E+01   0.259218811E-01   0.557441527E+04   0.733906680E+02   0.131656262E-01
 0.395840674E+01   0.611123575E+00   0.642935054E+00  -0.434196246E+00   0.300000000E+01   0.259218811E-01   0.543893230E+04   0.791232387E+02   0.145475682E-01
 0.398982267E+01   0.623795944E+00   0.648754270E+00  -0.456622575E+00   0.300000000E+01   0.259218811E-01   0.529352456E+04   0.854858639E+02   0.161491390E-01
 0.402123860E+01   0.637037450E+00   0.655214976E+00  -0.479552124E+00   0.300000000E+01   0.259218811E-01   0.513714135E+04   0.925042976E+02   0.180069598E-01
 0.405265452E+01   0.650793683E+00   0.662401890E+00  -0.502934223E+00   0.300000000E+01   0.259218811E-01   0.497010008E+04   0.100406833E+03   0.202021752E-01
 0.408407045E+01   0.664989206E+00   0.670407081E+00  -0.526693900E+00   0.300000000E+01   0.259218811E-01   0.479196886E+04   0.109308551E+03   0.228107807E-01
 0.411548638E+01   0.679523654E+00   0.679328979E+00  -0.550727146E+00   0.300000000E+01   0.259218811E-01   0.460305767E+04   0.119438003E+03   0.259475357E-01
 0.414690230E+01   0.694252412E+00   0.689278884E+00  -0.574883031E+00   0.300000000E+01   0.259218811E-01   0.440365426E+04   0.130980676E+03   0.297436331E-01
 0.417831823E+01   0.708985650E+00   0.700374870E+00  -0.598960077E+00   0.300000000E+01   0.259218811E-01   0.419481191E+04   0.144232286E+03   0.343834930E-01
 0.420973416E+01   0.723495368E+00   0.712731377E+00  -0.622710156E+00   0.300000000E+01   0.259218811E-01   0.397860217E+04   0.159574447E+03   0.401081687E-01
 0.424115008E+01   0.737478255E+00   0.726469808E+00  -0.645804269E+00   0.300000000E+01   0.259218811E-01   0.375738442E+04   0.177086974E+03   0.471303850E-01
 0.427256601E+01   0.750601309E+00   0.741687436E+00  -0.667870703E+00   0.300000000E+01   0.259218811E-01   0.353573733E+04   0.197072803E+03   0.557373991E-01
 0.430398194E+01   0.762462474E+00   0.758467566E+00  -0.688459795E+00   0.300000000E+01   0.259218811E-01   0.331911360E+04   0.219389033E+03   0.660986816E-01
 0.433539786E+01   0.772642549E+00   0.776849236E+00  -0.707091207E+00   0.300000000E+01   0.259218811E-01   0.311503245E+04   0.243809147E+03   0.782685737E-01
 0.436681379E+01   0.780730668E+00   0.796814846E+00  -0.723280804E+00   0.300000000E+01   0.259218811E-01   0.293277587E+04   0.268746818E+03   0.916356484E-01
 0.439822972E+01   0.786322645E+00   0.818290869E+00  -0.736543608E+00   0.300000000E+01   0.259218811E-01   0.278229957E+04   0.292532276E+03   0.105140467E+00
 0.442964564E+01   0.789157351E+00   0.841110047E+00  -0.746529154E+00   0.300000000E+01   0.259218811E-01   0.267399597E+04   0.312320854E+03   0.116799299E+00
 0.446106157E+01   0.789021493E+00   0.865056263E+00  -0.752939264E+00   0.300000000E+01   0.259218811E-01   0.261532117E+04   0.325867568E+03   0.124599446E+00
 0.449247749E+01   0.785886205E+00   0.889842165E+00  -0.755665853E+00   0.300000000E+01   0.259218811E-01   0.261017420E+04   0.331721266E+03   0.127087788E+00
 0.452389342E+01   0.779838337E+00   0.915150796E+00  -0.754731589E+00   0.300000000E+01   0.259218811E-01   0.265619245E+04   0.330629428E+03   0.124474952E+00
 0.455530935E+01   0.771128740E+00   0.940646817E+00  -0.750341198E+00   0.300000000E+01   0.259218811E-01   0.274680843E+04   0.324145271E+03   0.118007965E+00
 0.458672527E+01   0.760098504E+00   0.966012326E+00  -0.742811232E+00   0.300000000E+01   0.259218811E-01   0.287297861E+04   0.314112825E+03   0.109333507E+00
 0.461814120E+01   0.747097643E+00   0.990969830E+00  -0.732488329E+00   0.300000000E+01   0.259218811E-01   0.302424749E+04   0.302342689E+03   0.999728661E-01
 0.464955713E+01   0.732515854E+00   0.101528288E+01  -0.719776734E+00   0.300000000E+01   0.259218811E-01   0.319106845E+04   0.290044969E+03   0.908927446E-01
 0.468097305E+01   0.716761741E+00   0.103876390E+01  -0.705114395E+00   0.300000000E+01   0.259218811E-01   0.336622487E+04   0.277842526E+03   0.825383140E-01
 0.471238898E+01   0.700205764E+00   0.106127793E+01  -0.688912096E+00   0.300000000E+01   0.259218811E-01   0.354502135E+04   0.265997132E+03   0.750340001E-01
 0.474380491E+01   0.683054666E+00   0.108273319E+01  -0.671423952E+00   0.300000000E+01   0.259218811E-01   0.372042823E+04   0.254867051E+03   0.685047622E-01
 0.477522083E+01   0.665686634E+00   0.110307674E+01  -0.653079386E+00   0.300000000E+01   0.259218811E-01   0.389275449E+04   0.244332138E+03   0.627658739E-01
 0.480663676E+01   0.648257767E+00   0.112228437E+01  -0.634087108E+00   0.300000000E+01   0.259218811E-01   0.405830120E+04   0.234386630E+03   0.577548629E-01
 0.483805269E+01   0.630954194E+00   0.114035746E+01  -0.614685264E+00   0.300000000E+01   0.259218811E-01   0.421634660E+04   0.224961571E+03   0.533546201E-01
 0.486946861E+01   0.613903599E+00   0.115731361E+01  -0.595051760E+00   0.300000000E+01   0.259218811E-01   0.436662591E+04   0.216026520E+03   0.494721839E-01
 0.490088454E+01   0.597236927E+00   0.117318897E+01  -0.575364551E+00   0.300000000E+01   0.259218811E-01   0.450933706E+04   0.207630048E+03   0.460444729E-01
 0.493230047E+01   0.580993403E+00   0.118801771E+01  -0.555707533E+00   0.300000000E+01   0.259218811E-01   0.464286468E+04   0.199449478E+03   0.429582794E-01
 0.496371639E+01   0.565244500E+00   0.120184852E+01  -0.536192637E+00   0.300000000E+01   0.259218811E-01   0.476810542E+04   0.191648150E+03   0.401937737E-01
 0.499513232E+01   0.550053317E+00   0.121473791E+01  -0.516919059E+00   0.300000000E+01   0.259218811E-01   0.488603998E+04   0.184282466E+03   0.377161192E-01
 0.502654825E+01   0.535432985E+00   0.122673582E+01  -0.497933362E+00   0.300000000E+01   0.259218811E-01   0.499635329E+04   0.177086437E+03   0.354431376E-01
 0.505796417E+01   0.521393582E+00   0.123789371E+01  -0.479275527E+00   0.300000000E+01   0.259218811E-01   0.509866150E+04   0.170117509E+03   0.333651310E-01
 0.508938010E+01   0.507937711E+00   0.124826227E+01  -0.460974873E+00   0.300000000E+01   0.259218811E-01   0.519461942E+04   0.163488707E+03   0.314727015E-01
 0.512079603E+01   0.495065759E+00   0.125789225E+01  -0.443055222E+00   0.300000000E+01   0.259218811E-01   0.528381380E+04   0.157015840E+03   0.297163840E-01
 0.515221195E+01   0.482767703E+00   0.126683042E+01  -0.425527609E+00   0.300000000E+01   0.259218811E-01   0.536641246E+04   0.150819294E+03   0.281043052E-01
 0.518362788E+01   0.471043660E+00   0.127512728E+01  -0.408409307E+00   0.300000000E+01   0.259218811E-01   0.544354603E+04   0.144802923E+03   0.266008448E-01
 0.521504380E+01   0.459887370E+00   0.128283036E+01  -0.391708706E+00   0.300000000E+01   0.259218811E-01   0.551570072E+04   0.138893548E+03   0.251814874E-01
 0.524645973E+01   0.449261877E+00   0.128997083E+01  -0.375404911E+00   0.300000000E+01   0.259218811E-01   0.558228202E+04   0.133221291E+03   0.238650235E-01
 0.527787566E+01   0.439183603E+00   0.129660427E+01  -0.359521313E+00   0.300000000E+01   0.259218811E-01   0.564585073E+04   0.127672693E+03   0.226135439E-01
 0.530929158E+01   0.429585991E+00   0.130274107E+01  -0.344008560E+00   0.300000000E+01   0.259218811E-01   0.570308196E+04   0.122237643E+03   0.214336115E-01
 0.534070751E+01   0.420505708E+00   0.130844498E+01  -0.328902596E+00   0.300000000E+01   0.259218811E-01   0.575760074E+04   0.117012225E+03   0.203230877E-01
 0.537212344E+01   0.411886239E+00   0.131372591E+01  -0.314160309E+00   0.300000000E+01   0.259218811E-01   0.580803449E+04   0.111882495E+03   0.192634007E-01
 0.540353936E+01   0.403719781E+00   0.131861860E+01  -0.299777770E+00   0.300000000E+01   0.259218811E-01   0.585474344E+04   0.106837481E+03   0.182480210E-01
 0.543495529E+01   0.396002519E+00   0.132315909E+01  -0.285752206E+00   0.300000000E+01   0.259218811E-01   0.589862364E+04   0.101951399E+03   0.172839302E-01
 0.546637122E+01   0.388721617E+00   0.132737619E+01  -0.272072196E+00   0.300000000E+01   0.259218811E-01   0.594009451E+04   0.971748226E+02   0.163591375E-01
 0.549778714E+01   0.381839100E+00   0.133127895E+01  -0.258707349E+00   0.300000000E+01   0.259218811E-01   0.597915398E+04   0.924916520E+02   0.154690199E-01
 0.552920307E+01   0.375315389E+00   0.133487107E+01  -0.245627396E+00   0.300000000E+01   0.259218811E-01   0.601311366E+04   0.879824382E+02   0.146317604E-01
 0.556061900E+01   0.369179033E+00   0.133820321E+01  -0.232848807E+00   0.300000000E+01   0.259218811E-01   0.604560930E+04   0.835023931E+02   0.138120724E-01
 0.559203492E+01   0.363419668E+00   0.134129760E+01  -0.220358747E+00   0.300000000E+01   0.259218811E-01   0.607767679E+04   0.790283120E+02   0.130030462E-01
 0.562345085E+01   0.357981663E+00   0.134413893E+01  -0.208115819E+00   0.300000000E+01   0.259218811E-01   0.610499802E+04   0.748971201E+02   0.122681645E-01
 0.565486678E+01   0.352900922E+00   0.134678077E+01  -0.196136289E+00   0.300000000E+01   0.259218811E-01   0.613237661E+04   0.705734792E+02   0.115083407E-01
 0.568628270E+01   0.348124272E+00   0.134920475E+01  -0.184381199E+00   0.300000000E+01   0.259218811E-01   0.615635079E+04   0.666061926E+02   0.108191029E-01
 0.571769863E+01   0.343669783E+00   0.135144792E+01  -0.172853810E+00   0.300000000E+01   0.259218811E-01   0.618014380E+04   0.624253184E+02   0.101009492E-01
 0.574911456E+01   0.339494856E+00   0.135349542E+01  -0.161523274E+00   0.300000000E+01   0.259218811E-01   0.620021091E+04   0.586160581E+02   0.945388131E-02
 0.578053048E+01   0.335625380E+00   0.135538869E+01  -0.150395092E+00   0.300000000E+01   0.259218811E-01   0.622117204E+04   0.545771147E+02   0.877280267E-02