 TITLE="normal velocity for solution of GS equation with flow"
                   Variables ="theta", "r", "R [m] ","z [m]", "q", "psi", "vpol", "vnorm", "v_ratio"
 ZONE I=         201 ,F=Point
 0.000000000E+00   0.161841775E+00   0.122311970E+01   0.112936679E-01   0.150000000E+01   0.496932521E-01   0.100572575E+04   0.319042365E+00   0.317226009E-03
 0.314159265E-01   0.161876155E+00   0.122307421E+01   0.163783208E-01   0.150000000E+01   0.496932521E-01   0.100585017E+04  -0.114962549E+01  -0.114293911E-02
 0.628318531E-01   0.162070250E+00   0.122302837E+01   0.214701431E-01   0.150000000E+01   0.496932521E-01   0.100609888E+04  -0.260563378E+01  -0.258983866E-02
 0.942477796E-01   0.162335986E+00   0.122289346E+01   0.265708337E-01   0.150000000E+01   0.496932521E-01   0.100613095E+04  -0.409267013E+01  -0.406773107E-02
 0.125663706E+00   0.162738270E+00   0.122273296E+01   0.316901815E-01   0.150000000E+01   0.496932521E-01   0.100618469E+04  -0.555126007E+01  -0.551713830E-02
 0.157079633E+00   0.163238250E+00   0.122250645E+01   0.368297562E-01   0.150000000E+01   0.496932521E-01   0.100610882E+04  -0.704525187E+01  -0.700247502E-02
 0.188495559E+00   0.163854119E+00   0.122222974E+01   0.419968680E-01   0.150000000E+01   0.496932521E-01   0.100594695E+04  -0.852881629E+01  -0.847839567E-02
 0.219911486E+00   0.164592673E+00   0.122190668E+01   0.471984471E-01   0.150000000E+01   0.496932521E-01   0.100572110E+04  -0.100235826E+02  -0.996656290E-02
 0.251327412E+00   0.165430288E+00   0.122151092E+01   0.524345075E-01   0.150000000E+01   0.496932521E-01   0.100530734E+04  -0.115548539E+02  -0.114938520E-01
 0.282743339E+00   0.166413823E+00   0.122108407E+01   0.577216445E-01   0.150000000E+01   0.496932521E-01   0.100486976E+04  -0.130532879E+02  -0.129900296E-01
 0.314159265E+00   0.167484577E+00   0.122056523E+01   0.630492483E-01   0.150000000E+01   0.496932521E-01   0.100415184E+04  -0.146567966E+02  -0.145961955E-01
 0.345575192E+00   0.168713658E+00   0.122001737E+01   0.684433815E-01   0.150000000E+01   0.496932521E-01   0.100326727E+04  -0.161736063E+02  -0.161209348E-01
 0.376991118E+00   0.170033058E+00   0.121937067E+01   0.738870114E-01   0.150000000E+01   0.496932521E-01   0.100218378E+04  -0.178768734E+02  -0.178379194E-01
 0.408407045E+00   0.171536484E+00   0.121870633E+01   0.794190206E-01   0.150000000E+01   0.496932521E-01   0.100106400E+04  -0.194480679E+02  -0.194273971E-01
 0.439822972E+00   0.173103796E+00   0.121790693E+01   0.849976793E-01   0.150000000E+01   0.496932521E-01   0.999817799E+03  -0.212281132E+02  -0.212319817E-01
 0.471238898E+00   0.174858580E+00   0.121707806E+01   0.906778019E-01   0.150000000E+01   0.496932521E-01   0.998806174E+03  -0.227984150E+02  -0.228256649E-01
 0.502654825E+00   0.176701091E+00   0.121612228E+01   0.964200675E-01   0.150000000E+01   0.496932521E-01   0.997376598E+03  -0.246607205E+02  -0.247255857E-01
 0.534070751E+00   0.178747736E+00   0.121513362E+01   0.102283668E+00   0.150000000E+01   0.496932521E-01   0.995757482E+03  -0.263601018E+02  -0.264724115E-01
 0.565486678E+00   0.180901853E+00   0.121401842E+01   0.108225728E+00   0.150000000E+01   0.496932521E-01   0.993649258E+03  -0.283799133E+02  -0.285612987E-01
 0.596902604E+00   0.183237687E+00   0.121283026E+01   0.114288526E+00   0.150000000E+01   0.496932521E-01   0.991645053E+03  -0.302107169E+02  -0.304652525E-01
 0.628318531E+00   0.185688793E+00   0.121150332E+01   0.120438802E+00   0.150000000E+01   0.496932521E-01   0.989598778E+03  -0.322168512E+02  -0.325554679E-01
 0.659734457E+00   0.188338928E+00   0.121009488E+01   0.126727926E+00   0.150000000E+01   0.496932521E-01   0.987099243E+03  -0.342481640E+02  -0.346957657E-01
 0.691150384E+00   0.191168105E+00   0.120857549E+01   0.133148804E+00   0.150000000E+01   0.496932521E-01   0.983987480E+03  -0.364575545E+02  -0.370508317E-01
 0.722566310E+00   0.194119724E+00   0.120688928E+01   0.139667345E+00   0.150000000E+01   0.496932521E-01   0.981332769E+03  -0.386341655E+02  -0.393690772E-01
 0.753982237E+00   0.197307278E+00   0.120510874E+01   0.146359794E+00   0.150000000E+01   0.496932521E-01   0.977990349E+03  -0.407852324E+02  -0.417031032E-01
 0.785398163E+00   0.200634525E+00   0.120314796E+01   0.153163701E+00   0.150000000E+01   0.496932521E-01   0.974169929E+03  -0.434275387E+02  -0.445790178E-01
 0.816814090E+00   0.204157963E+00   0.120103367E+01   0.160118418E+00   0.150000000E+01   0.496932521E-01   0.970321693E+03  -0.457901826E+02  -0.471907233E-01
 0.848230016E+00   0.207907007E+00   0.119876930E+01   0.167247015E+00   0.150000000E+01   0.496932521E-01   0.965587668E+03  -0.485630456E+02  -0.502937716E-01
 0.879645943E+00   0.211794038E+00   0.119628053E+01   0.174483779E+00   0.150000000E+01   0.496932521E-01   0.961193764E+03  -0.513086004E+02  -0.533800804E-01
 0.911061870E+00   0.215960928E+00   0.119364191E+01   0.181936278E+00   0.150000000E+01   0.496932521E-01   0.955631231E+03  -0.542335442E+02  -0.567515401E-01
 0.942477796E+00   0.220257769E+00   0.119074220E+01   0.189485946E+00   0.150000000E+01   0.496932521E-01   0.950173668E+03  -0.572875443E+02  -0.602916564E-01
 0.973893723E+00   0.224783718E+00   0.118762512E+01   0.197207915E+00   0.150000000E+01   0.496932521E-01   0.943892530E+03  -0.606749722E+02  -0.642816531E-01
 0.100530965E+01   0.229542974E+00   0.118427321E+01   0.205103211E+00   0.150000000E+01   0.496932521E-01   0.936742352E+03  -0.641476401E+02  -0.684794917E-01
 0.103672558E+01   0.234467460E+00   0.118063158E+01   0.213109664E+00   0.150000000E+01   0.496932521E-01   0.929439417E+03  -0.677455271E+02  -0.728885884E-01
 0.106814150E+01   0.239587978E+00   0.117670032E+01   0.221246214E+00   0.150000000E+01   0.496932521E-01   0.921501145E+03  -0.718148565E+02  -0.779324658E-01
 0.109955743E+01   0.244923672E+00   0.117247095E+01   0.229522257E+00   0.150000000E+01   0.496932521E-01   0.912684768E+03  -0.760587709E+02  -0.833352036E-01
 0.113097336E+01   0.250456767E+00   0.116791723E+01   0.237913726E+00   0.150000000E+01   0.496932521E-01   0.903020401E+03  -0.805016744E+02  -0.891471270E-01
 0.116238928E+01   0.256117686E+00   0.116299453E+01   0.246346859E+00   0.150000000E+01   0.496932521E-01   0.892813178E+03  -0.854633637E+02  -0.957236808E-01
 0.119380521E+01   0.261917797E+00   0.115769630E+01   0.254818677E+00   0.150000000E+01   0.496932521E-01   0.881888667E+03  -0.907809643E+02  -0.102939257E+00
 0.122522113E+01   0.267854440E+00   0.115201039E+01   0.263312760E+00   0.150000000E+01   0.496932521E-01   0.870118097E+03  -0.964193019E+02  -0.110811742E+00
 0.125663706E+01   0.273906679E+00   0.114591975E+01   0.271794400E+00   0.150000000E+01   0.496932521E-01   0.857547426E+03  -0.102480850E+03  -0.119504586E+00
 0.128805299E+01   0.279964116E+00   0.113938543E+01   0.280141441E+00   0.150000000E+01   0.496932521E-01   0.844515923E+03  -0.109188686E+03  -0.129291448E+00
 0.131946891E+01   0.286008967E+00   0.113240547E+01   0.288317138E+00   0.150000000E+01   0.496932521E-01   0.831380498E+03  -0.116271595E+03  -0.139853648E+00
 0.135088484E+01   0.292059342E+00   0.112498870E+01   0.296319275E+00   0.150000000E+01   0.496932521E-01   0.817796527E+03  -0.124012450E+03  -0.151642182E+00
 0.138230077E+01   0.297935990E+00   0.111710557E+01   0.303952392E+00   0.150000000E+01   0.496932521E-01   0.804458460E+03  -0.132087128E+03  -0.164193845E+00
 0.141371669E+01   0.303610261E+00   0.110877304E+01   0.311165983E+00   0.150000000E+01   0.496932521E-01   0.792112712E+03  -0.140877949E+03  -0.177850887E+00
 0.144513262E+01   0.309063027E+00   0.110001380E+01   0.317919640E+00   0.150000000E+01   0.496932521E-01   0.780911482E+03  -0.150101687E+03  -0.192213447E+00
 0.147654855E+01   0.314128679E+00   0.109084005E+01   0.324028233E+00   0.150000000E+01   0.496932521E-01   0.772149698E+03  -0.159659631E+03  -0.206772899E+00
 0.150796447E+01   0.318734155E+00   0.108129141E+01   0.329398874E+00   0.150000000E+01   0.496932521E-01   0.766336852E+03  -0.169315880E+03  -0.220941848E+00
 0.153938040E+01   0.322780837E+00   0.107141672E+01   0.333915232E+00   0.150000000E+01   0.496932521E-01   0.764899874E+03  -0.178749881E+03  -0.233690562E+00
 0.157079633E+01   0.326251697E+00   0.106127793E+01   0.337545365E+00   0.150000000E+01   0.496932521E-01   0.768685752E+03  -0.187673287E+03  -0.244148257E+00
 0.160221225E+01   0.328964890E+00   0.105094489E+01   0.340096233E+00   0.150000000E+01   0.496932521E-01   0.778830103E+03  -0.195361656E+03  -0.250839888E+00
 0.163362818E+01   0.330893836E+00   0.104050093E+01   0.341534561E+00   0.150000000E+01   0.496932521E-01   0.796073521E+03  -0.201257248E+03  -0.252812388E+00
 0.166504411E+01   0.332013072E+00   0.103003274E+01   0.341833254E+00   0.150000000E+01   0.496932521E-01   0.820788608E+03  -0.204914926E+03  -0.249656152E+00
 0.169646003E+01   0.332295329E+00   0.101963028E+01   0.340968749E+00   0.150000000E+01   0.496932521E-01   0.853009730E+03  -0.205970366E+03  -0.241463091E+00
 0.172787596E+01   0.331740981E+00   0.100938221E+01   0.338950367E+00   0.150000000E+01   0.496932521E-01   0.892329200E+03  -0.204393604E+03  -0.229056276E+00
 0.175929189E+01   0.330317564E+00   0.999382590E+00   0.335760400E+00   0.150000000E+01   0.496932521E-01   0.937901108E+03  -0.199935496E+03  -0.213173323E+00
 0.179070781E+01   0.328130545E+00   0.989698469E+00   0.331521767E+00   0.150000000E+01   0.496932521E-01   0.988734227E+03  -0.193533296E+03  -0.195738441E+00
 0.182212374E+01   0.325242611E+00   0.980393381E+00   0.326318184E+00   0.150000000E+01   0.496932521E-01   0.104368131E+04  -0.185808127E+03  -0.178031478E+00
 0.185353967E+01   0.321689749E+00   0.971529350E+00   0.320210303E+00   0.150000000E+01   0.496932521E-01   0.110134264E+04  -0.176759713E+03  -0.160494751E+00
 0.188495559E+01   0.317617886E+00   0.963128605E+00   0.313366228E+00   0.150000000E+01   0.496932521E-01   0.116069657E+04  -0.167343527E+03  -0.144175086E+00
 0.191637152E+01   0.313062700E+00   0.955231721E+00   0.305848342E+00   0.150000000E+01   0.496932521E-01   0.122084808E+04  -0.158205706E+03  -0.129586726E+00
 0.194778745E+01   0.308140317E+00   0.947843913E+00   0.297795289E+00   0.150000000E+01   0.496932521E-01   0.128034544E+04  -0.148702161E+03  -0.116142219E+00
 0.197920337E+01   0.302943071E+00   0.940964728E+00   0.289321073E+00   0.150000000E+01   0.496932521E-01   0.133902782E+04  -0.139924384E+03  -0.104496995E+00
 0.201061930E+01   0.297598981E+00   0.934566446E+00   0.280569277E+00   0.150000000E+01   0.496932521E-01   0.139613222E+04  -0.131520691E+03  -0.942036069E-01
 0.204203522E+01   0.292144050E+00   0.928647306E+00   0.271595923E+00   0.150000000E+01   0.496932521E-01   0.145111835E+04  -0.123543081E+03  -0.851364615E-01
 0.207345115E+01   0.286604655E+00   0.923205084E+00   0.262447241E+00   0.150000000E+01   0.496932521E-01   0.150361183E+04  -0.116027850E+03  -0.771660923E-01
 0.210486708E+01   0.281085641E+00   0.918193697E+00   0.253235892E+00   0.150000000E+01   0.496932521E-01   0.155347805E+04  -0.109012808E+03  -0.701733816E-01
 0.213628300E+01   0.275641998E+00   0.913581561E+00   0.244025904E+00   0.150000000E+01   0.496932521E-01   0.160070434E+04  -0.102477832E+03  -0.640204627E-01
 0.216769893E+01   0.270316476E+00   0.909337531E+00   0.234867174E+00   0.150000000E+01   0.496932521E-01   0.164540284E+04  -0.964373303E+02  -0.586101639E-01
 0.219911486E+01   0.265105784E+00   0.905452659E+00   0.225768752E+00   0.150000000E+01   0.496932521E-01   0.168738890E+04  -0.909317263E+02  -0.538890154E-01
 0.223053078E+01   0.260031469E+00   0.901902807E+00   0.216758837E+00   0.150000000E+01   0.496932521E-01   0.172642501E+04  -0.855142132E+02  -0.495325384E-01
 0.226194671E+01   0.255147338E+00   0.898640895E+00   0.207888071E+00   0.150000000E+01   0.496932521E-01   0.176283172E+04  -0.803752877E+02  -0.455944188E-01
 0.229336264E+01   0.250434138E+00   0.895662862E+00   0.199147087E+00   0.150000000E+01   0.496932521E-01   0.179679293E+04  -0.757073467E+02  -0.421347087E-01
 0.232477856E+01   0.245955237E+00   0.892909983E+00   0.190587320E+00   0.150000000E+01   0.496932521E-01   0.182880674E+04  -0.713416401E+02  -0.390099394E-01
 0.235619449E+01   0.241647651E+00   0.890407236E+00   0.182164361E+00   0.150000000E+01   0.496932521E-01   0.185810220E+04  -0.670959645E+02  -0.361099429E-01
 0.238761042E+01   0.237536186E+00   0.888121502E+00   0.173898377E+00   0.150000000E+01   0.496932521E-01   0.188531233E+04  -0.630560765E+02  -0.334459577E-01
 0.241902634E+01   0.233641785E+00   0.886020640E+00   0.165803752E+00   0.150000000E+01   0.496932521E-01   0.191061333E+04  -0.592807515E+02  -0.310270793E-01
 0.245044227E+01   0.229974971E+00   0.884079169E+00   0.157885231E+00   0.150000000E+01   0.496932521E-01   0.193416389E+04  -0.557060516E+02  -0.288011020E-01
 0.248185820E+01   0.226455582E+00   0.882342916E+00   0.150089891E+00   0.150000000E+01   0.496932521E-01   0.195557704E+04  -0.522188054E+02  -0.267025049E-01
 0.251327412E+01   0.223160913E+00   0.880736958E+00   0.142464361E+00   0.150000000E+01   0.496932521E-01   0.197537600E+04  -0.488689858E+02  -0.247390805E-01
 0.254469005E+01   0.220085767E+00   0.879249267E+00   0.135000219E+00   0.150000000E+01   0.496932521E-01   0.199390302E+04  -0.457306682E+02  -0.229352520E-01
 0.257610598E+01   0.217153615E+00   0.877929068E+00   0.127650393E+00   0.150000000E+01   0.496932521E-01   0.201061151E+04  -0.426483172E+02  -0.212116150E-01
 0.260752190E+01   0.214428824E+00   0.876710029E+00   0.120446820E+00   0.150000000E+01   0.496932521E-01   0.202604685E+04  -0.396946215E+02  -0.195921538E-01
 0.263893783E+01   0.211910006E+00   0.875579776E+00   0.113382092E+00   0.150000000E+01   0.496932521E-01   0.204038434E+04  -0.368650980E+02  -0.180677225E-01
 0.267035376E+01   0.209531393E+00   0.874584091E+00   0.106418930E+00   0.150000000E+01   0.496932521E-01   0.205295649E+04  -0.340002572E+02  -0.165616063E-01
 0.270176968E+01   0.207343990E+00   0.873667478E+00   0.995764449E-01   0.150000000E+01   0.496932521E-01   0.206491490E+04  -0.313725223E+02  -0.151931309E-01
 0.273318561E+01   0.205318005E+00   0.872846381E+00   0.928352804E-01   0.150000000E+01   0.496932521E-01   0.207559298E+04  -0.287546365E+02  -0.138536971E-01
 0.276460154E+01   0.203453156E+00   0.872111969E+00   0.861897698E-01   0.150000000E+01   0.496932521E-01   0.208510839E+04  -0.261860432E+02  -0.125586005E-01
 0.279601746E+01   0.201775007E+00   0.871431705E+00   0.796425141E-01   0.150000000E+01   0.496932521E-01   0.209397953E+04  -0.237157475E+02  -0.113256826E-01
 0.282743339E+01   0.200217332E+00   0.870859931E+00   0.731642260E-01   0.150000000E+01   0.496932521E-01   0.210133599E+04  -0.212157630E+02  -0.100963211E-01
 0.285884931E+01   0.198848494E+00   0.870324976E+00   0.667706291E-01   0.150000000E+01   0.496932521E-01   0.210829171E+04  -0.188309556E+02  -0.893185487E-02
 0.289026524E+01   0.197601832E+00   0.869884123E+00   0.604352451E-01   0.150000000E+01   0.496932521E-01   0.211396556E+04  -0.164297672E+02  -0.777201269E-02
 0.292168117E+01   0.196519297E+00   0.869491453E+00   0.541630244E-01   0.150000000E+01   0.496932521E-01   0.211921334E+04  -0.141183597E+02  -0.666207571E-02
 0.295309709E+01   0.195572479E+00   0.869169577E+00   0.479402960E-01   0.150000000E+01   0.496932521E-01   0.212351238E+04  -0.118160586E+02  -0.556439354E-02
 0.298451302E+01   0.194767888E+00   0.868907957E+00   0.417620783E-01   0.150000000E+01   0.496932521E-01   0.212699747E+04  -0.954288598E+01  -0.448655258E-02
 0.301592895E+01   0.194115193E+00   0.868693393E+00   0.356227526E-01   0.150000000E+01   0.496932521E-01   0.212988280E+04  -0.728962166E+01  -0.342254591E-02
 0.304734487E+01   0.193584548E+00   0.868552516E+00   0.295115832E-01   0.150000000E+01   0.496932521E-01   0.213174108E+04  -0.504476429E+01  -0.236649955E-02
 0.307876080E+01   0.193218174E+00   0.868441028E+00   0.234259374E-01   0.150000000E+01   0.496932521E-01   0.213327157E+04  -0.281775670E+01  -0.132086169E-02
 0.311017673E+01   0.192956633E+00   0.868416509E+00   0.173545822E-01   0.150000000E+01   0.496932521E-01   0.213356439E+04  -0.592022467E+00  -0.277480479E-03
 0.314159265E+01   0.192872067E+00   0.868405863E+00   0.112936679E-01   0.150000000E+01   0.496932521E-01   0.213377205E+04   0.163058645E+01   0.764180245E-03
 0.317300858E+01   0.192877481E+00   0.868495622E+00   0.523523979E-02   0.150000000E+01   0.496932521E-01   0.213252921E+04   0.384755009E+01   0.180421918E-02
 0.320442451E+01   0.193059673E+00   0.868599215E+00  -0.828649302E-03   0.150000000E+01   0.496932521E-01   0.213120213E+04   0.607994808E+01   0.285282564E-02
 0.323584043E+01   0.193345955E+00   0.868790051E+00  -0.690179380E-02   0.150000000E+01   0.496932521E-01   0.212863270E+04   0.830579765E+01   0.390194027E-02
 0.326725636E+01   0.193796069E+00   0.869010000E+00  -0.129954201E-01   0.150000000E+01   0.496932521E-01   0.212574055E+04   0.105579318E+02   0.496670763E-02
 0.329867229E+01   0.194366416E+00   0.869304486E+00  -0.191119385E-01   0.150000000E+01   0.496932521E-01   0.212180775E+04   0.128135801E+02   0.603899202E-02
 0.333008821E+01   0.195088040E+00   0.869645435E+00  -0.252621855E-01   0.150000000E+01   0.496932521E-01   0.211728353E+04   0.150934789E+02   0.712869989E-02
 0.336150414E+01   0.195943166E+00   0.870053709E+00  -0.314500095E-01   0.150000000E+01   0.496932521E-01   0.211193102E+04   0.174122036E+02   0.824468387E-02
 0.339292007E+01   0.196936443E+00   0.870528607E+00  -0.376824339E-01   0.150000000E+01   0.496932521E-01   0.210580883E+04   0.197549691E+02   0.938117874E-02
 0.342433599E+01   0.198090683E+00   0.871052697E+00  -0.439718710E-01   0.150000000E+01   0.496932521E-01   0.209907607E+04   0.221737687E+02   0.105635851E-01
 0.345575192E+01   0.199367719E+00   0.871667961E+00  -0.503143454E-01   0.150000000E+01   0.496932521E-01   0.209110350E+04   0.245732195E+02   0.117513167E-01
 0.348716785E+01   0.200831238E+00   0.872319680E+00  -0.567354879E-01   0.150000000E+01   0.496932521E-01   0.208274030E+04   0.270998858E+02   0.130116490E-01
 0.351858377E+01   0.202406419E+00   0.873085200E+00  -0.632171046E-01   0.150000000E+01   0.496932521E-01   0.207277684E+04   0.295679804E+02   0.142649126E-01
 0.354999970E+01   0.204170634E+00   0.873899386E+00  -0.697922687E-01   0.150000000E+01   0.496932521E-01   0.206225869E+04   0.321549254E+02   0.155920911E-01
 0.358141563E+01   0.206080687E+00   0.874810549E+00  -0.764512211E-01   0.150000000E+01   0.496932521E-01   0.205044360E+04   0.347677527E+02   0.169562102E-01
 0.361283155E+01   0.208144237E+00   0.875820057E+00  -0.832018381E-01   0.150000000E+01   0.496932521E-01   0.203774956E+04   0.375107169E+02   0.184079131E-01
 0.364424748E+01   0.210402170E+00   0.876901102E+00  -0.900683504E-01   0.150000000E+01   0.496932521E-01   0.202419611E+04   0.404115410E+02   0.199642420E-01
 0.367566340E+01   0.212792898E+00   0.878118139E+00  -0.970267303E-01   0.150000000E+01   0.496932521E-01   0.200878288E+04   0.432210733E+02   0.215160503E-01
 0.370707933E+01   0.215392518E+00   0.879416011E+00  -0.104119415E+00   0.150000000E+01   0.496932521E-01   0.199240360E+04   0.461852586E+02   0.231806742E-01
 0.373849526E+01   0.218153355E+00   0.880847527E+00  -0.111326707E+00   0.150000000E+01   0.496932521E-01   0.197478660E+04   0.493651484E+02   0.249977129E-01
 0.376991118E+01   0.221082369E+00   0.882418536E+00  -0.118655288E+00   0.150000000E+01   0.496932521E-01   0.195545973E+04   0.525584633E+02   0.268778039E-01
 0.380132711E+01   0.224229810E+00   0.884101621E+00  -0.126138364E+00   0.150000000E+01   0.496932521E-01   0.193478266E+04   0.559075672E+02   0.288960453E-01
 0.383274304E+01   0.227540391E+00   0.885955045E+00  -0.133746036E+00   0.150000000E+01   0.496932521E-01   0.191248717E+04   0.594792374E+02   0.311004635E-01
 0.386415896E+01   0.231026997E+00   0.887982021E+00  -0.141487227E+00   0.150000000E+01   0.496932521E-01   0.188814745E+04   0.630943405E+02   0.334160028E-01
 0.389557489E+01   0.234729603E+00   0.890167413E+00  -0.149389802E+00   0.150000000E+01   0.496932521E-01   0.186220060E+04   0.669494670E+02   0.359518019E-01
 0.392699082E+01   0.238624360E+00   0.892545026E+00  -0.157439235E+00   0.150000000E+01   0.496932521E-01   0.183458473E+04   0.711356761E+02   0.387748110E-01
 0.395840674E+01   0.242687170E+00   0.895147129E+00  -0.165617666E+00   0.150000000E+01   0.496932521E-01   0.180445288E+04   0.752680640E+02   0.417124021E-01
 0.398982267E+01   0.246925068E+00   0.897983452E+00  -0.173927559E+00   0.150000000E+01   0.496932521E-01   0.177221125E+04   0.798014715E+02   0.450293224E-01
 0.402123860E+01   0.251381113E+00   0.901041578E+00  -0.182398808E+00   0.150000000E+01   0.496932521E-01   0.173821996E+04   0.846919577E+02   0.487233836E-01
 0.405265452E+01   0.255993894E+00   0.904377466E+00  -0.190981190E+00   0.150000000E+01   0.496932521E-01   0.170146927E+04   0.897136299E+02   0.527271528E-01
 0.408407045E+01   0.260717376E+00   0.908032101E+00  -0.199631120E+00   0.150000000E+01   0.496932521E-01   0.166220521E+04   0.950963953E+02   0.572109838E-01
 0.411548638E+01   0.265589604E+00   0.911994427E+00  -0.208370335E+00   0.150000000E+01   0.496932521E-01   0.162056231E+04   0.100876825E+03   0.622480388E-01
 0.414690230E+01   0.270588369E+00   0.916289431E+00  -0.217171649E+00   0.150000000E+01   0.496932521E-01   0.157652156E+04   0.107085084E+03   0.679249095E-01
 0.417831823E+01   0.275681751E+00   0.920944501E+00  -0.225997201E+00   0.150000000E+01   0.496932521E-01   0.153013229E+04   0.113790891E+03   0.743667009E-01
 0.420973416E+01   0.280780980E+00   0.926010661E+00  -0.234756580E+00   0.150000000E+01   0.496932521E-01   0.148101481E+04   0.120666653E+03   0.814756560E-01
 0.424115008E+01   0.285875343E+00   0.931493239E+00  -0.243423128E+00   0.150000000E+01   0.496932521E-01   0.142961867E+04   0.128035889E+03   0.895594687E-01
 0.427256601E+01   0.290922320E+00   0.937409230E+00  -0.251940717E+00   0.150000000E+01   0.496932521E-01   0.137620962E+04   0.135910898E+03   0.987574100E-01
 0.430398194E+01   0.295883987E+00   0.943768228E+00  -0.260255230E+00   0.150000000E+01   0.496932521E-01   0.132132666E+04   0.144328042E+03   0.109229646E+00
 0.433539786E+01   0.300590951E+00   0.950623020E+00  -0.268188730E+00   0.150000000E+01   0.496932521E-01   0.126500809E+04   0.153010639E+03   0.120956253E+00
 0.436681379E+01   0.305068022E+00   0.957939822E+00  -0.275738967E+00   0.150000000E+01   0.496932521E-01   0.120792029E+04   0.161738689E+03   0.133898479E+00
 0.439822972E+01   0.309194977E+00   0.965731427E+00  -0.282768230E+00   0.150000000E+01   0.496932521E-01   0.115117369E+04   0.171114354E+03   0.148643384E+00
 0.442964564E+01   0.312857228E+00   0.973993545E+00  -0.289141153E+00   0.150000000E+01   0.496932521E-01   0.109494212E+04   0.179618866E+03   0.164044165E+00
 0.446106157E+01   0.316059919E+00   0.982677024E+00  -0.294836647E+00   0.150000000E+01   0.496932521E-01   0.104076657E+04   0.187894515E+03   0.180534733E+00
 0.449247749E+01   0.318599062E+00   0.991777697E+00  -0.299632498E+00   0.150000000E+01   0.496932521E-01   0.989341486E+03   0.194979624E+03   0.197080206E+00
 0.452389342E+01   0.320524090E+00   0.100121770E+01  -0.303553059E+00   0.150000000E+01   0.496932521E-01   0.941934747E+03   0.200843735E+03   0.213224680E+00
 0.455530935E+01   0.321722051E+00   0.101094951E+01  -0.306467451E+00   0.150000000E+01   0.496932521E-01   0.899421499E+03   0.204491291E+03   0.227358687E+00
 0.458672527E+01   0.322161726E+00   0.102090036E+01  -0.308327716E+00   0.150000000E+01   0.496932521E-01   0.862697419E+03   0.205730964E+03   0.238474069E+00
 0.461814120E+01   0.321848630E+00   0.103098930E+01  -0.309126586E+00   0.150000000E+01   0.496932521E-01   0.832397526E+03   0.204584164E+03   0.245776997E+00
 0.464955713E+01   0.320781510E+00   0.104113589E+01  -0.308854853E+00   0.150000000E+01   0.496932521E-01   0.808811107E+03   0.201104859E+03   0.248642553E+00
 0.468097305E+01   0.318971735E+00   0.105125879E+01  -0.307520673E+00   0.150000000E+01   0.496932521E-01   0.791797428E+03   0.195602148E+03   0.247035594E+00
 0.471238898E+01   0.316503273E+00   0.106127793E+01  -0.305209605E+00   0.150000000E+01   0.496932521E-01   0.781101491E+03   0.188576725E+03   0.241424101E+00
 0.474380491E+01   0.313345548E+00   0.107112035E+01  -0.301897263E+00   0.150000000E+01   0.496932521E-01   0.776228135E+03   0.180275002E+03   0.232244869E+00
 0.477522083E+01   0.309635206E+00   0.108072008E+01  -0.297730544E+00   0.150000000E+01   0.496932521E-01   0.776082944E+03   0.171404751E+03   0.220858804E+00
 0.480663676E+01   0.305450924E+00   0.109002340E+01  -0.292801654E+00   0.150000000E+01   0.496932521E-01   0.779591738E+03   0.162305216E+03   0.208192580E+00
 0.483805269E+01   0.300799414E+00   0.109897809E+01  -0.287133852E+00   0.150000000E+01   0.496932521E-01   0.786426067E+03   0.153164432E+03   0.194760115E+00
 0.486946861E+01   0.295869702E+00   0.110756215E+01  -0.280933387E+00   0.150000000E+01   0.496932521E-01   0.795140030E+03   0.144289568E+03   0.181464349E+00
 0.490088454E+01   0.290669770E+00   0.111574401E+01  -0.274227542E+00   0.150000000E+01   0.496932521E-01   0.805573683E+03   0.135876054E+03   0.168669927E+00
 0.493230047E+01   0.285251949E+00   0.112350371E+01  -0.267088491E+00   0.150000000E+01   0.496932521E-01   0.816776051E+03   0.127789161E+03   0.156455568E+00
 0.496371639E+01   0.279770517E+00   0.113085403E+01  -0.259687344E+00   0.150000000E+01   0.496932521E-01   0.828136050E+03   0.120143311E+03   0.145076779E+00
 0.499513232E+01   0.274122560E+00   0.113775569E+01  -0.251944496E+00   0.150000000E+01   0.496932521E-01   0.839918526E+03   0.113101100E+03   0.134657228E+00
 0.502654825E+01   0.268543337E+00   0.114426238E+01  -0.244106223E+00   0.150000000E+01   0.496932521E-01   0.851489177E+03   0.106581099E+03   0.125170233E+00
 0.505796417E+01   0.262978398E+00   0.115035868E+01  -0.236137650E+00   0.150000000E+01   0.496932521E-01   0.862460358E+03   0.100273801E+03   0.116264823E+00
 0.508938010E+01   0.257433789E+00   0.115604563E+01  -0.228062216E+00   0.150000000E+01   0.496932521E-01   0.873185128E+03   0.945142011E+02   0.108240736E+00
 0.512079603E+01   0.251984730E+00   0.116135313E+01  -0.219966484E+00   0.150000000E+01   0.496932521E-01   0.883308672E+03   0.891954120E+02   0.100978757E+00
 0.515221195E+01   0.246689916E+00   0.116631339E+01  -0.211918042E+00   0.150000000E+01   0.496932521E-01   0.892789301E+03   0.841179276E+02   0.942192379E-01
 0.518362788E+01   0.241538212E+00   0.117093398E+01  -0.203918455E+00   0.150000000E+01   0.496932521E-01   0.901583648E+03   0.793284068E+02   0.879878500E-01
 0.521504380E+01   0.236500350E+00   0.117521284E+01  -0.195953169E+00   0.150000000E+01   0.496932521E-01   0.909950297E+03   0.751261205E+02   0.825606858E-01
 0.524645973E+01   0.231660541E+00   0.117920274E+01  -0.188106296E+00   0.150000000E+01   0.496932521E-01   0.917479098E+03   0.710886167E+02   0.774825464E-01
 0.527787566E+01   0.227002015E+00   0.118291169E+01  -0.180370473E+00   0.150000000E+01   0.496932521E-01   0.924764341E+03   0.669442046E+02   0.723905558E-01
 0.530929158E+01   0.222470209E+00   0.118632474E+01  -0.172707120E+00   0.150000000E+01   0.496932521E-01   0.931627366E+03   0.634333232E+02   0.680887289E-01
 0.534070751E+01   0.218167927E+00   0.118951382E+01  -0.165207892E+00   0.150000000E+01   0.496932521E-01   0.937651941E+03   0.601002027E+02   0.640964947E-01
 0.537212344E+01   0.214056913E+00   0.119247492E+01  -0.157844475E+00   0.150000000E+01   0.496932521E-01   0.943353879E+03   0.565983769E+02   0.599969727E-01
 0.540353936E+01   0.210085871E+00   0.119519170E+01  -0.150580278E+00   0.150000000E+01   0.496932521E-01   0.948759755E+03   0.537162591E+02   0.566173458E-01
 0.543495529E+01   0.206329399E+00   0.119772601E+01  -0.143476298E+00   0.150000000E+01   0.496932521E-01   0.953549233E+03   0.507994459E+02   0.532740671E-01
 0.546637122E+01   0.202767663E+00   0.120008195E+01  -0.136517597E+00   0.150000000E+01   0.496932521E-01   0.958149968E+03   0.478915501E+02   0.499833551E-01
 0.549778714E+01   0.199341918E+00   0.120223395E+01  -0.129662354E+00   0.150000000E+01   0.496932521E-01   0.962322817E+03   0.453932407E+02   0.471704919E-01
 0.552920307E+01   0.196159460E+00   0.120427202E+01  -0.122986723E+00   0.150000000E+01   0.496932521E-01   0.966203153E+03   0.427750184E+02   0.442712470E-01
 0.556061900E+01   0.193079965E+00   0.120610935E+01  -0.116392404E+00   0.150000000E+01   0.496932521E-01   0.970029760E+03   0.403956630E+02   0.416437357E-01
 0.559203492E+01   0.190212353E+00   0.120783907E+01  -0.109952249E+00   0.150000000E+01   0.496932521E-01   0.973157275E+03   0.381128029E+02   0.391640733E-01
 0.562345085E+01   0.187499821E+00   0.120943185E+01  -0.103626295E+00   0.150000000E+01   0.496932521E-01   0.976325388E+03   0.358398797E+02   0.367089498E-01
 0.565486678E+01   0.184919197E+00   0.121088070E+01  -0.973991091E-01   0.150000000E+01   0.496932521E-01   0.979338029E+03   0.337117357E+02   0.344229824E-01
 0.568628270E+01   0.182542483E+00   0.121225527E+01  -0.913104275E-01   0.150000000E+01   0.496932521E-01   0.981907679E+03   0.315600007E+02   0.321415153E-01
 0.571769863E+01   0.180284243E+00   0.121349695E+01  -0.853074600E-01   0.150000000E+01   0.496932521E-01   0.984032604E+03   0.297437335E+02   0.302263699E-01
 0.574911456E+01   0.178191785E+00   0.121465509E+01  -0.794133309E-01   0.150000000E+01   0.496932521E-01   0.986688041E+03   0.275938276E+02   0.279661114E-01
 0.578053048E+01   0.176194376E+00   0.121567824E+01  -0.735886202E-01   0.150000000E+01   0.496932521E-01   0.988846321E+03   0.258311667E+02   0.261225290E-01