 TITLE="normal velocity for solution of GS equation with flow"
                   Variables ="theta", "r", "R [m] ","z [m]", "q", "psi", "vpol", "vnorm", "v_ratio"
 ZONE I=         201 ,F=Point
 0.000000000E+00   0.236823135E+00   0.129810106E+01   0.112936679E-01   0.200000000E+01   0.396129510E-01   0.338991808E+04  -0.386536737E+00  -0.114025392E-03
 0.314159265E-01   0.236879520E+00   0.129804056E+01   0.187342334E-01   0.200000000E+01   0.396129510E-01   0.339087706E+04  -0.324972269E+01  -0.958372313E-03
 0.628318531E-01   0.237113601E+00   0.129792364E+01   0.261821541E-01   0.200000000E+01   0.396129510E-01   0.339148622E+04  -0.611835375E+01  -0.180403321E-02
 0.942477796E-01   0.237526273E+00   0.129775005E+01   0.336468648E-01   0.200000000E+01   0.396129510E-01   0.339186752E+04  -0.894698668E+01  -0.263777598E-02
 0.125663706E+00   0.238069781E+00   0.129747046E+01   0.411317233E-01   0.200000000E+01   0.396129510E-01   0.339149146E+04  -0.118541203E+02  -0.349525287E-02
 0.157079633E+00   0.238798124E+00   0.129713605E+01   0.486499246E-01   0.200000000E+01   0.396129510E-01   0.339090340E+04  -0.147439549E+02  -0.434809051E-02
 0.188495559E+00   0.239704134E+00   0.129673624E+01   0.562097437E-01   0.200000000E+01   0.396129510E-01   0.339016151E+04  -0.175707701E+02  -0.518287109E-02
 0.219911486E+00   0.240741498E+00   0.129622159E+01   0.638097985E-01   0.200000000E+01   0.396129510E-01   0.338889774E+04  -0.205201931E+02  -0.605512312E-02
 0.251327412E+00   0.241969502E+00   0.129564551E+01   0.714690360E-01   0.200000000E+01   0.396129510E-01   0.338731280E+04  -0.234259053E+02  -0.691577857E-02
 0.282743339E+00   0.243390746E+00   0.129500453E+01   0.791975213E-01   0.200000000E+01   0.396129510E-01   0.338533556E+04  -0.262608491E+02  -0.775723665E-02
 0.314159265E+00   0.244964276E+00   0.129425280E+01   0.869917923E-01   0.200000000E+01   0.396129510E-01   0.338263052E+04  -0.293298958E+02  -0.867073586E-02
 0.345575192E+00   0.246733891E+00   0.129342510E+01   0.948717931E-01   0.200000000E+01   0.396129510E-01   0.337928088E+04  -0.323925886E+02  -0.958564551E-02
 0.376991118E+00   0.248709900E+00   0.129252255E+01   0.102849889E+00   0.200000000E+01   0.396129510E-01   0.337546743E+04  -0.354188851E+02  -0.104930312E-01
 0.408407045E+00   0.250854359E+00   0.129150068E+01   0.110919947E+00   0.200000000E+01   0.396129510E-01   0.337125751E+04  -0.385387952E+02  -0.114315786E-01
 0.439822972E+00   0.253189127E+00   0.129037030E+01   0.119096355E+00   0.200000000E+01   0.396129510E-01   0.336675560E+04  -0.416994132E+02  -0.123856371E-01
 0.471238898E+00   0.255743584E+00   0.128914713E+01   0.127398825E+00   0.200000000E+01   0.396129510E-01   0.336130234E+04  -0.448841316E+02  -0.133531968E-01
 0.502654825E+00   0.258527898E+00   0.128782765E+01   0.135840433E+00   0.200000000E+01   0.396129510E-01   0.335508192E+04  -0.481056483E+02  -0.143381442E-01
 0.534070751E+00   0.261496765E+00   0.128635918E+01   0.144406351E+00   0.200000000E+01   0.396129510E-01   0.334836387E+04  -0.515438878E+02  -0.153937534E-01
 0.565486678E+00   0.264690011E+00   0.128476310E+01   0.153121668E+00   0.200000000E+01   0.396129510E-01   0.334104045E+04  -0.549728604E+02  -0.164538147E-01
 0.596902604E+00   0.268134643E+00   0.128304688E+01   0.162007694E+00   0.200000000E+01   0.396129510E-01   0.333244125E+04  -0.585585257E+02  -0.175722605E-01
 0.628318531E+00   0.271823398E+00   0.128118768E+01   0.171067453E+00   0.200000000E+01   0.396129510E-01   0.332359619E+04  -0.620545870E+02  -0.186709165E-01
 0.659734457E+00   0.275758279E+00   0.127916972E+01   0.180307862E+00   0.200000000E+01   0.396129510E-01   0.331369100E+04  -0.656451412E+02  -0.198102784E-01
 0.691150384E+00   0.279951471E+00   0.127698424E+01   0.189741451E+00   0.200000000E+01   0.396129510E-01   0.330250705E+04  -0.697124253E+02  -0.211089406E-01
 0.722566310E+00   0.284393625E+00   0.127460474E+01   0.199366547E+00   0.200000000E+01   0.396129510E-01   0.329063760E+04  -0.736027197E+02  -0.223673126E-01
 0.753982237E+00   0.289145642E+00   0.127205603E+01   0.209227481E+00   0.200000000E+01   0.396129510E-01   0.327731464E+04  -0.778593331E+02  -0.237570516E-01
 0.785398163E+00   0.294160752E+00   0.126928099E+01   0.219296730E+00   0.200000000E+01   0.396129510E-01   0.326290253E+04  -0.819699726E+02  -0.251217963E-01
 0.816814090E+00   0.299498594E+00   0.126629882E+01   0.229618747E+00   0.200000000E+01   0.396129510E-01   0.324723006E+04  -0.863883961E+02  -0.266037191E-01
 0.848230016E+00   0.305151766E+00   0.126307841E+01   0.240191386E+00   0.200000000E+01   0.396129510E-01   0.323001235E+04  -0.910166187E+02  -0.281784120E-01
 0.879645943E+00   0.311108900E+00   0.125958621E+01   0.251007196E+00   0.200000000E+01   0.396129510E-01   0.321141536E+04  -0.956476115E+02  -0.297836314E-01
 0.911061870E+00   0.317404410E+00   0.125581733E+01   0.262092353E+00   0.200000000E+01   0.396129510E-01   0.319086244E+04  -0.100619066E+03  -0.315335016E-01
 0.942477796E+00   0.324053803E+00   0.125175198E+01   0.273458702E+00   0.200000000E+01   0.396129510E-01   0.316858708E+04  -0.105896685E+03  -0.334207904E-01
 0.973893723E+00   0.331054937E+00   0.124735841E+01   0.285102775E+00   0.200000000E+01   0.396129510E-01   0.314428103E+04  -0.111439262E+03  -0.354418900E-01
 0.100530965E+01   0.338412676E+00   0.124260851E+01   0.297024941E+00   0.200000000E+01   0.396129510E-01   0.311781136E+04  -0.117220382E+03  -0.375970093E-01
 0.103672558E+01   0.346125756E+00   0.123747027E+01   0.309218653E+00   0.200000000E+01   0.396129510E-01   0.308881616E+04  -0.123235461E+03  -0.398973118E-01
 0.106814150E+01   0.354217950E+00   0.123192373E+01   0.321697224E+00   0.200000000E+01   0.396129510E-01   0.305752829E+04  -0.129524620E+03  -0.423625255E-01
 0.109955743E+01   0.362688007E+00   0.122593484E+01   0.334451048E+00   0.200000000E+01   0.396129510E-01   0.302343937E+04  -0.136164417E+03  -0.450362652E-01
 0.113097336E+01   0.371547251E+00   0.121947505E+01   0.347479672E+00   0.200000000E+01   0.396129510E-01   0.298635917E+04  -0.143298170E+03  -0.479842383E-01
 0.116238928E+01   0.380774524E+00   0.121250173E+01   0.360751248E+00   0.200000000E+01   0.396129510E-01   0.294617541E+04  -0.150790054E+03  -0.511816279E-01
 0.119380521E+01   0.390333307E+00   0.120496920E+01   0.374216399E+00   0.200000000E+01   0.396129510E-01   0.290217246E+04  -0.158817573E+03  -0.547236856E-01
 0.122522113E+01   0.400234989E+00   0.119685270E+01   0.387867072E+00   0.200000000E+01   0.396129510E-01   0.285469484E+04  -0.167394270E+03  -0.586382359E-01
 0.125663706E+01   0.410470054E+00   0.118812015E+01   0.401673887E+00   0.200000000E+01   0.396129510E-01   0.280354625E+04  -0.176613726E+03  -0.629965445E-01
 0.128805299E+01   0.420988371E+00   0.117872994E+01   0.415566143E+00   0.200000000E+01   0.396129510E-01   0.274862255E+04  -0.186422948E+03  -0.678241355E-01
 0.131946891E+01   0.431723054E+00   0.116864309E+01   0.429453348E+00   0.200000000E+01   0.396129510E-01   0.268964740E+04  -0.196872649E+03  -0.731964526E-01
 0.135088484E+01   0.442610477E+00   0.115783041E+01   0.443244651E+00   0.200000000E+01   0.396129510E-01   0.262669677E+04  -0.208100263E+03  -0.792250803E-01
 0.138230077E+01   0.453609064E+00   0.114627579E+01   0.456868068E+00   0.200000000E+01   0.396129510E-01   0.256025207E+04  -0.220219211E+03  -0.860146598E-01
 0.141371669E+01   0.464619033E+00   0.113396036E+01   0.470192470E+00   0.200000000E+01   0.396129510E-01   0.249076554E+04  -0.233277776E+03  -0.936570592E-01
 0.144513262E+01   0.475510297E+00   0.112087517E+01   0.483054424E+00   0.200000000E+01   0.396129510E-01   0.241890979E+04  -0.247254538E+03  -0.102217346E+00
 0.147654855E+01   0.486157672E+00   0.110702941E+01   0.495293755E+00   0.200000000E+01   0.396129510E-01   0.234611871E+04  -0.262115974E+03  -0.111723236E+00
 0.150796447E+01   0.496413456E+00   0.109244799E+01   0.506727565E+00   0.200000000E+01   0.396129510E-01   0.227396263E+04  -0.277846741E+03  -0.122186151E+00
 0.153938040E+01   0.506104025E+00   0.107717504E+01   0.517147961E+00   0.200000000E+01   0.396129510E-01   0.220485183E+04  -0.294196425E+03  -0.133431381E+00
 0.157079633E+01   0.515047213E+00   0.106127793E+01   0.526340881E+00   0.200000000E+01   0.396129510E-01   0.214184685E+04  -0.310884218E+03  -0.145147734E+00
 0.160221225E+01   0.523028139E+00   0.104484922E+01   0.534063724E+00   0.200000000E+01   0.396129510E-01   0.208891249E+04  -0.327301683E+03  -0.156685206E+00
 0.163362818E+01   0.529892892E+00   0.102800568E+01   0.540140938E+00   0.200000000E+01   0.396129510E-01   0.205048412E+04  -0.342604394E+03  -0.167084636E+00
 0.166504411E+01   0.535415430E+00   0.101089089E+01   0.544332905E+00   0.200000000E+01   0.396129510E-01   0.203095093E+04  -0.355288316E+03  -0.174936928E+00
 0.169646003E+01   0.539466815E+00   0.993664809E+00   0.546506625E+00   0.200000000E+01   0.396129510E-01   0.203467186E+04  -0.363916829E+03  -0.178857749E+00
 0.172787596E+01   0.541918747E+00   0.976503160E+00   0.546540496E+00   0.200000000E+01   0.396129510E-01   0.206465182E+04  -0.367255248E+03  -0.177877569E+00
 0.175929189E+01   0.542711639E+00   0.959583909E+00   0.544392392E+00   0.200000000E+01   0.396129510E-01   0.212215205E+04  -0.364401702E+03  -0.171713286E+00
 0.179070781E+01   0.541837112E+00   0.943079825E+00   0.540081588E+00   0.200000000E+01   0.396129510E-01   0.220616330E+04  -0.355158611E+03  -0.160984734E+00
 0.182212374E+01   0.539309072E+00   0.927157217E+00   0.533659354E+00   0.200000000E+01   0.396129510E-01   0.231375076E+04  -0.340565932E+03  -0.147192143E+00
 0.185353967E+01   0.535276401E+00   0.911940574E+00   0.525316216E+00   0.200000000E+01   0.396129510E-01   0.244102118E+04  -0.322143867E+03  -0.131970943E+00
 0.188495559E+01   0.529890620E+00   0.897532723E+00   0.515249595E+00   0.200000000E+01   0.396129510E-01   0.258334542E+04  -0.301696342E+03  -0.116785134E+00
 0.191637152E+01   0.523338771E+00   0.884003242E+00   0.503693053E+00   0.200000000E+01   0.396129510E-01   0.273585145E+04  -0.280551012E+03  -0.102546142E+00
 0.194778745E+01   0.515796900E+00   0.871400426E+00   0.490869497E+00   0.200000000E+01   0.396129510E-01   0.289409929E+04  -0.259948875E+03  -0.898203029E-01
 0.197920337E+01   0.507524272E+00   0.859715735E+00   0.477076417E+00   0.200000000E+01   0.396129510E-01   0.305467281E+04  -0.240358254E+03  -0.786854333E-01
 0.201061930E+01   0.498679099E+00   0.848950696E+00   0.462512007E+00   0.200000000E+01   0.396129510E-01   0.321438335E+04  -0.222357847E+03  -0.691758955E-01
 0.204203522E+01   0.489446352E+00   0.839073935E+00   0.447393561E+00   0.200000000E+01   0.396129510E-01   0.337027364E+04  -0.205585054E+03  -0.609995141E-01
 0.207345115E+01   0.480019720E+00   0.830026666E+00   0.431938155E+00   0.200000000E+01   0.396129510E-01   0.352162894E+04  -0.190420392E+03  -0.540716796E-01
 0.210486708E+01   0.470491496E+00   0.821778272E+00   0.416265472E+00   0.200000000E+01   0.396129510E-01   0.366657654E+04  -0.176725932E+03  -0.481991660E-01
 0.213628300E+01   0.461018047E+00   0.814252107E+00   0.400544079E+00   0.200000000E+01   0.396129510E-01   0.380444347E+04  -0.164185261E+03  -0.431561837E-01
 0.216769893E+01   0.451669855E+00   0.807401812E+00   0.384861031E+00   0.200000000E+01   0.396129510E-01   0.393516306E+04  -0.152896019E+03  -0.388537951E-01
 0.219911486E+01   0.442542174E+00   0.801158166E+00   0.369317807E+00   0.200000000E+01   0.396129510E-01   0.405821864E+04  -0.142415021E+03  -0.350929888E-01
 0.223053078E+01   0.433655646E+00   0.795487325E+00   0.353948850E+00   0.200000000E+01   0.396129510E-01   0.417346112E+04  -0.132960419E+03  -0.318585499E-01
 0.226194671E+01   0.425085202E+00   0.790318424E+00   0.338827445E+00   0.200000000E+01   0.396129510E-01   0.428165875E+04  -0.124336452E+03  -0.290393184E-01
 0.229336264E+01   0.416821601E+00   0.785628859E+00   0.323956165E+00   0.200000000E+01   0.396129510E-01   0.438196764E+04  -0.116215609E+03  -0.265213299E-01
 0.232477856E+01   0.408919906E+00   0.781352991E+00   0.309383451E+00   0.200000000E+01   0.396129510E-01   0.447568810E+04  -0.108730048E+03  -0.242934818E-01
 0.235619449E+01   0.401381743E+00   0.777458177E+00   0.295113420E+00   0.200000000E+01   0.396129510E-01   0.456276742E+04  -0.101872507E+03  -0.223269120E-01
 0.238761042E+01   0.394206759E+00   0.773913569E+00   0.281146764E+00   0.200000000E+01   0.396129510E-01   0.464341746E+04  -0.954265194E+02  -0.205509240E-01
 0.241902634E+01   0.387397464E+00   0.770686803E+00   0.267484207E+00   0.200000000E+01   0.396129510E-01   0.471810460E+04  -0.892945192E+02  -0.189259304E-01
 0.245044227E+01   0.380957464E+00   0.767745158E+00   0.254125095E+00   0.200000000E+01   0.396129510E-01   0.478721941E+04  -0.835686556E+02  -0.174566170E-01
 0.248185820E+01   0.374883069E+00   0.765062193E+00   0.241062145E+00   0.200000000E+01   0.396129510E-01   0.485110039E+04  -0.781791963E+02  -0.161157655E-01
 0.251327412E+01   0.369168378E+00   0.762614437E+00   0.228285396E+00   0.200000000E+01   0.396129510E-01   0.491026951E+04  -0.730450356E+02  -0.148759728E-01
 0.254469005E+01   0.363801367E+00   0.760384885E+00   0.215780369E+00   0.200000000E+01   0.396129510E-01   0.496462962E+04  -0.681899652E+02  -0.137351566E-01
 0.257610598E+01   0.358774627E+00   0.758354493E+00   0.203534726E+00   0.200000000E+01   0.396129510E-01   0.501471309E+04  -0.635404781E+02  -0.126708103E-01
 0.260752190E+01   0.354076995E+00   0.756508979E+00   0.191533523E+00   0.200000000E+01   0.396129510E-01   0.506076181E+04  -0.590469297E+02  -0.116675971E-01
 0.263893783E+01   0.349695663E+00   0.754837284E+00   0.179760838E+00   0.200000000E+01   0.396129510E-01   0.510250212E+04  -0.547749302E+02  -0.107349157E-01
 0.267035376E+01   0.345631593E+00   0.753317925E+00   0.168207128E+00   0.200000000E+01   0.396129510E-01   0.514095369E+04  -0.506271619E+02  -0.984781518E-02
 0.270176968E+01   0.341874679E+00   0.751940471E+00   0.156856827E+00   0.200000000E+01   0.396129510E-01   0.517621678E+04  -0.466024121E+02  -0.900318013E-02
 0.273318561E+01   0.338410211E+00   0.750700393E+00   0.145692569E+00   0.200000000E+01   0.396129510E-01   0.520774387E+04  -0.427534138E+02  -0.820958458E-02
 0.276460154E+01   0.335234987E+00   0.749584322E+00   0.134701897E+00   0.200000000E+01   0.396129510E-01   0.523639953E+04  -0.389977213E+02  -0.744743044E-02
 0.279601746E+01   0.332341888E+00   0.748583838E+00   0.123870468E+00   0.200000000E+01   0.396129510E-01   0.526231330E+04  -0.353295801E+02  -0.671369759E-02
 0.282743339E+01   0.329721995E+00   0.747693678E+00   0.113183368E+00   0.200000000E+01   0.396129510E-01   0.528553405E+04  -0.317382472E+02  -0.600473801E-02
 0.285884931E+01   0.327365116E+00   0.746911276E+00   0.102625624E+00   0.200000000E+01   0.396129510E-01   0.530596545E+04  -0.282217719E+02  -0.531887592E-02
 0.289026524E+01   0.325266749E+00   0.746230034E+00   0.921842189E-01   0.200000000E+01   0.396129510E-01   0.532356957E+04  -0.247880593E+02  -0.465628542E-02
 0.292168117E+01   0.323423983E+00   0.745643043E+00   0.818464239E-01   0.200000000E+01   0.396129510E-01   0.533879675E+04  -0.214081574E+02  -0.400992179E-02
 0.295309709E+01   0.321832698E+00   0.745145773E+00   0.715991018E-01   0.200000000E+01   0.396129510E-01   0.535172789E+04  -0.180756749E+02  -0.337753998E-02
 0.298451302E+01   0.320500599E+00   0.744723225E+00   0.614310076E-01   0.200000000E+01   0.396129510E-01   0.536270984E+04  -0.147840046E+02  -0.275681606E-02
 0.301592895E+01   0.319401667E+00   0.744394840E+00   0.513253116E-01   0.200000000E+01   0.396129510E-01   0.537124019E+04  -0.115257969E+02  -0.214583532E-02
 0.304734487E+01   0.318544052E+00   0.744147587E+00   0.412713113E-01   0.200000000E+01   0.396129510E-01   0.537762611E+04  -0.829383639E+01  -0.154228580E-02
 0.307876080E+01   0.317925543E+00   0.743979740E+00   0.312563779E-01   0.200000000E+01   0.396129510E-01   0.538189910E+04  -0.508053099E+01  -0.944003390E-03
 0.311017673E+01   0.317544510E+00   0.743890108E+00   0.212679820E-01   0.200000000E+01   0.396129510E-01   0.538408121E+04  -0.187814119E+01  -0.348832254E-03
 0.314159265E+01   0.317399897E+00   0.743878033E+00   0.112936679E-01   0.200000000E+01   0.396129510E-01   0.538418535E+04   0.132114254E+01   0.245374640E-03
 0.317300858E+01   0.317479417E+00   0.743955169E+00   0.132139838E-02   0.200000000E+01   0.396129510E-01   0.538185421E+04   0.452171053E+01   0.840177076E-03
 0.320442451E+01   0.317795045E+00   0.744109980E+00  -0.866084814E-02   0.200000000E+01   0.396129510E-01   0.537744503E+04   0.772937280E+01   0.143736900E-02
 0.323584043E+01   0.318347545E+00   0.744343222E+00  -0.186654826E-01   0.200000000E+01   0.396129510E-01   0.537094588E+04   0.109518894E+02   0.203909881E-02
 0.326725636E+01   0.319138243E+00   0.744656187E+00  -0.287049601E-01   0.200000000E+01   0.396129510E-01   0.536233567E+04   0.141969183E+02   0.264752510E-02
 0.329867229E+01   0.320169042E+00   0.745050700E+00  -0.387918049E-01   0.200000000E+01   0.396129510E-01   0.535158385E+04   0.174719345E+02   0.326481562E-02
 0.333008821E+01   0.321431645E+00   0.745539723E+00  -0.489366163E-01   0.200000000E+01   0.396129510E-01   0.533838996E+04   0.207841117E+02   0.389332961E-02
 0.336150414E+01   0.322951400E+00   0.746104244E+00  -0.591559974E-01   0.200000000E+01   0.396129510E-01   0.532324698E+04   0.241404191E+02   0.453490496E-02
 0.339292007E+01   0.324720345E+00   0.746759271E+00  -0.694609981E-01   0.200000000E+01   0.396129510E-01   0.530581337E+04   0.275474163E+02   0.519193089E-02
 0.342433599E+01   0.326739428E+00   0.747512120E+00  -0.798637265E-01   0.200000000E+01   0.396129510E-01   0.528572161E+04   0.310275823E+02   0.587007499E-02
 0.345575192E+01   0.329015936E+00   0.748365180E+00  -0.903778477E-01   0.200000000E+01   0.396129510E-01   0.526295723E+04   0.345912121E+02   0.657258090E-02
 0.348716785E+01   0.331550344E+00   0.749328587E+00  -0.101015006E+00   0.200000000E+01   0.396129510E-01   0.523745589E+04   0.382207349E+02   0.729757648E-02
 0.351858377E+01   0.334355360E+00   0.750402178E+00  -0.111790749E+00   0.200000000E+01   0.396129510E-01   0.520932207E+04   0.419328288E+02   0.804957502E-02
 0.354999970E+01   0.337437789E+00   0.751592837E+00  -0.122719038E+00   0.200000000E+01   0.396129510E-01   0.517846029E+04   0.457341711E+02   0.883161569E-02
 0.358141563E+01   0.340798884E+00   0.752913880E+00  -0.133811439E+00   0.200000000E+01   0.396129510E-01   0.514419347E+04   0.496840183E+02   0.965827173E-02
 0.361283155E+01   0.344450920E+00   0.754369912E+00  -0.145083778E+00   0.200000000E+01   0.396129510E-01   0.510669857E+04   0.537716350E+02   0.105296278E-01
 0.364424748E+01   0.348403246E+00   0.755969837E+00  -0.156550876E+00   0.200000000E+01   0.396129510E-01   0.506606810E+04   0.579785802E+02   0.114444929E-01
 0.367566340E+01   0.352659075E+00   0.757729442E+00  -0.168224407E+00   0.200000000E+01   0.396129510E-01   0.502169994E+04   0.623674911E+02   0.124195973E-01
 0.370707933E+01   0.357228199E+00   0.759660185E+00  -0.180118773E+00   0.200000000E+01   0.396129510E-01   0.497336818E+04   0.669684072E+02   0.134654031E-01
 0.373849526E+01   0.362122241E+00   0.761773659E+00  -0.192249224E+00   0.200000000E+01   0.396129510E-01   0.492136364E+04   0.717067002E+02   0.145704942E-01
 0.376991118E+01   0.367330804E+00   0.764101067E+00  -0.204617961E+00   0.200000000E+01   0.396129510E-01   0.486423256E+04   0.767530258E+02   0.157790617E-01
 0.380132711E+01   0.372882970E+00   0.766642582E+00  -0.217248934E+00   0.200000000E+01   0.396129510E-01   0.480308118E+04   0.819604136E+02   0.170641325E-01
 0.383274304E+01   0.378768232E+00   0.769431991E+00  -0.230142289E+00   0.200000000E+01   0.396129510E-01   0.473649147E+04   0.875702580E+02   0.184884230E-01
 0.386415896E+01   0.385007181E+00   0.772479781E+00  -0.243316149E+00   0.200000000E+01   0.396129510E-01   0.466515218E+04   0.934457630E+02   0.200305927E-01
 0.389557489E+01   0.391596351E+00   0.775816475E+00  -0.256772481E+00   0.200000000E+01   0.396129510E-01   0.458829275E+04   0.997346194E+02   0.217367603E-01
 0.392699082E+01   0.398534445E+00   0.779471521E+00  -0.270512741E+00   0.200000000E+01   0.396129510E-01   0.450561257E+04   0.106517324E+03   0.236410305E-01
 0.395840674E+01   0.405802807E+00   0.783486792E+00  -0.284523847E+00   0.200000000E+01   0.396129510E-01   0.441645906E+04   0.113670329E+03   0.257378882E-01
 0.398982267E+01   0.413406155E+00   0.787887534E+00  -0.298806865E+00   0.200000000E+01   0.396129510E-01   0.432091177E+04   0.121366935E+03   0.280882697E-01
 0.402123860E+01   0.421335116E+00   0.792708819E+00  -0.313350619E+00   0.200000000E+01   0.396129510E-01   0.421885877E+04   0.129744846E+03   0.307535411E-01
 0.405265452E+01   0.429561436E+00   0.797996695E+00  -0.328126454E+00   0.200000000E+01   0.396129510E-01   0.410993674E+04   0.138872478E+03   0.337894443E-01
 0.408407045E+01   0.438025022E+00   0.803813281E+00  -0.343076019E+00   0.200000000E+01   0.396129510E-01   0.399333595E+04   0.148673781E+03   0.372304717E-01
 0.411548638E+01   0.446715512E+00   0.810186566E+00  -0.358176054E+00   0.200000000E+01   0.396129510E-01   0.386999112E+04   0.159429251E+03   0.411962834E-01
 0.414690230E+01   0.455575219E+00   0.817168520E+00  -0.373361212E+00   0.200000000E+01   0.396129510E-01   0.373983233E+04   0.171344904E+03   0.458161994E-01
 0.417831823E+01   0.464510090E+00   0.824823055E+00  -0.388529689E+00   0.200000000E+01   0.396129510E-01   0.360257795E+04   0.184198436E+03   0.511296185E-01
 0.420973416E+01   0.473416543E+00   0.833207770E+00  -0.403564411E+00   0.200000000E+01   0.396129510E-01   0.345935960E+04   0.198513356E+03   0.573844235E-01
 0.424115008E+01   0.482196358E+00   0.842365364E+00  -0.418346433E+00   0.200000000E+01   0.396129510E-01   0.331116171E+04   0.214220855E+03   0.646965849E-01
 0.427256601E+01   0.490717647E+00   0.852340517E+00  -0.432720934E+00   0.200000000E+01   0.396129510E-01   0.315887119E+04   0.231150783E+03   0.731751215E-01
 0.430398194E+01   0.498807082E+00   0.863177749E+00  -0.446488839E+00   0.200000000E+01   0.396129510E-01   0.300483406E+04   0.249534138E+03   0.830442327E-01
 0.433539786E+01   0.506298876E+00   0.874896882E+00  -0.459451122E+00   0.200000000E+01   0.396129510E-01   0.285147995E+04   0.269063607E+03   0.943592841E-01
 0.436681379E+01   0.513013427E+00   0.887500828E+00  -0.471390800E+00   0.200000000E+01   0.396129510E-01   0.270193491E+04   0.289523124E+03   0.107153997E+00
 0.439822972E+01   0.518762939E+00   0.900971365E+00  -0.482079205E+00   0.200000000E+01   0.396129510E-01   0.255972606E+04   0.309821064E+03   0.121036805E+00
 0.442964564E+01   0.523358616E+00   0.915265530E+00  -0.491284306E+00   0.200000000E+01   0.396129510E-01   0.242899770E+04   0.328956541E+03   0.135428922E+00
 0.446106157E+01   0.526654025E+00   0.930304399E+00  -0.498814553E+00   0.200000000E+01   0.396129510E-01   0.231429340E+04   0.345746354E+03   0.149396076E+00
 0.449247749E+01   0.528515019E+00   0.945985950E+00  -0.504492998E+00   0.200000000E+01   0.396129510E-01   0.221916433E+04   0.358290240E+03   0.161452775E+00
 0.452389342E+01   0.528892050E+00   0.962173442E+00  -0.508230250E+00   0.200000000E+01   0.396129510E-01   0.214735286E+04   0.365916104E+03   0.170403342E+00
 0.455530935E+01   0.527718024E+00   0.978724643E+00  -0.509927271E+00   0.200000000E+01   0.396129510E-01   0.209990796E+04   0.367338501E+03   0.174930763E+00
 0.458672527E+01   0.525042132E+00   0.995472701E+00  -0.509608350E+00   0.200000000E+01   0.396129510E-01   0.207746345E+04   0.363404465E+03   0.174927008E+00
 0.461814120E+01   0.520989453E+00   0.101224849E+01  -0.507383616E+00   0.200000000E+01   0.396129510E-01   0.207845425E+04   0.354819467E+03   0.170713148E+00
 0.464955713E+01   0.515534563E+00   0.102890725E+01  -0.503223605E+00   0.200000000E+01   0.396129510E-01   0.209908138E+04   0.342518021E+03   0.163175199E+00
 0.468097305E+01   0.508973919E+00   0.104529067E+01  -0.497429104E+00   0.200000000E+01   0.396129510E-01   0.213637067E+04   0.328519960E+03   0.153774794E+00
 0.471238898E+01   0.501426700E+00   0.106127793E+01  -0.490133033E+00   0.200000000E+01   0.396129510E-01   0.218600871E+04   0.313048328E+03   0.143205435E+00
 0.474380491E+01   0.493025148E+00   0.107676422E+01  -0.481488202E+00   0.200000000E+01   0.396129510E-01   0.224405093E+04   0.297397793E+03   0.132527203E+00
 0.477522083E+01   0.483980254E+00   0.109166730E+01  -0.471731561E+00   0.200000000E+01   0.396129510E-01   0.230730752E+04   0.282046888E+03   0.122240700E+00
 0.480663676E+01   0.474445165E+00   0.110592716E+01  -0.461045893E+00   0.200000000E+01   0.396129510E-01   0.237310113E+04   0.267228080E+03   0.112607119E+00
 0.483805269E+01   0.464559613E+00   0.111950269E+01  -0.449602754E+00   0.200000000E+01   0.396129510E-01   0.243951968E+04   0.253007493E+03   0.103712011E+00
 0.486946861E+01   0.454437559E+00   0.113236763E+01  -0.437549011E+00   0.200000000E+01   0.396129510E-01   0.250484094E+04   0.239475751E+03   0.956051728E-01
 0.490088454E+01   0.444242839E+00   0.114452074E+01  -0.425080409E+00   0.200000000E+01   0.396129510E-01   0.256811591E+04   0.226944728E+03   0.883701265E-01
 0.493230047E+01   0.434008127E+00   0.115595387E+01  -0.412262138E+00   0.200000000E+01   0.396129510E-01   0.262861609E+04   0.214975981E+03   0.817829511E-01
 0.496371639E+01   0.423860727E+00   0.116668781E+01  -0.399250695E+00   0.200000000E+01   0.396129510E-01   0.268593404E+04   0.203821610E+03   0.758848159E-01
 0.499513232E+01   0.413874839E+00   0.117674533E+01  -0.386147726E+00   0.200000000E+01   0.396129510E-01   0.274010922E+04   0.193368504E+03   0.705696340E-01
 0.502654825E+01   0.404081019E+00   0.118614583E+01  -0.373010218E+00   0.200000000E+01   0.396129510E-01   0.279072705E+04   0.183517966E+03   0.657599123E-01
 0.505796417E+01   0.394513727E+00   0.119491469E+01  -0.359896711E+00   0.200000000E+01   0.396129510E-01   0.283763200E+04   0.174381182E+03   0.614530644E-01
 0.508938010E+01   0.385214068E+00   0.120308469E+01  -0.346869315E+00   0.200000000E+01   0.396129510E-01   0.288112503E+04   0.165798134E+03   0.575463169E-01
 0.512079603E+01   0.376204886E+00   0.121068691E+01  -0.333970106E+00   0.200000000E+01   0.396129510E-01   0.292161659E+04   0.157516882E+03   0.539142893E-01
 0.515221195E+01   0.367528835E+00   0.121776410E+01  -0.321256364E+00   0.200000000E+01   0.396129510E-01   0.295900437E+04   0.149895370E+03   0.506573670E-01
 0.518362788E+01   0.359162876E+00   0.122433446E+01  -0.308722798E+00   0.200000000E+01   0.396129510E-01   0.299353007E+04   0.142496502E+03   0.476014933E-01
 0.521504380E+01   0.351127083E+00   0.123043469E+01  -0.296401340E+00   0.200000000E+01   0.396129510E-01   0.302545770E+04   0.135422873E+03   0.447611194E-01
 0.524645973E+01   0.343433008E+00   0.123609955E+01  -0.284313555E+00   0.200000000E+01   0.396129510E-01   0.305491991E+04   0.128769270E+03   0.421514388E-01
 0.527787566E+01   0.336081811E+00   0.124135957E+01  -0.272469590E+00   0.200000000E+01   0.396129510E-01   0.308232229E+04   0.122446421E+03   0.397253790E-01
 0.530929158E+01   0.329052800E+00   0.124623304E+01  -0.260859511E+00   0.200000000E+01   0.396129510E-01   0.310745257E+04   0.116396577E+03   0.374572337E-01
 0.534070751E+01   0.322347997E+00   0.125074933E+01  -0.249491340E+00   0.200000000E+01   0.396129510E-01   0.313064836E+04   0.110610714E+03   0.353315675E-01
 0.537212344E+01   0.315964152E+00   0.125493459E+01  -0.238366991E+00   0.200000000E+01   0.396129510E-01   0.315205111E+04   0.105102842E+03   0.333442696E-01
 0.540353936E+01   0.309898582E+00   0.125881472E+01  -0.227487293E+00   0.200000000E+01   0.396129510E-01   0.317177786E+04   0.999020616E+02   0.314971811E-01
 0.543495529E+01   0.304151601E+00   0.126241699E+01  -0.216853815E+00   0.200000000E+01   0.396129510E-01   0.319021363E+04   0.949987506E+02   0.297781784E-01
 0.546637122E+01   0.298670873E+00   0.126573221E+01  -0.206428028E+00   0.200000000E+01   0.396129510E-01   0.320733984E+04   0.899935186E+02   0.280586165E-01
 0.549778714E+01   0.293497432E+00   0.126881195E+01  -0.196240357E+00   0.200000000E+01   0.396129510E-01   0.322301602E+04   0.853557238E+02   0.264831832E-01
 0.552920307E+01   0.288608660E+00   0.127166459E+01  -0.186272555E+00   0.200000000E+01   0.396129510E-01   0.323758677E+04   0.808898003E+02   0.249845969E-01
 0.556061900E+01   0.283987415E+00   0.127430003E+01  -0.176510580E+00   0.200000000E+01   0.396129510E-01   0.325137325E+04   0.764072031E+02   0.234999790E-01
 0.559203492E+01   0.279646695E+00   0.127674941E+01  -0.166959844E+00   0.200000000E+01   0.396129510E-01   0.326389229E+04   0.722031405E+02   0.221217902E-01
 0.562345085E+01   0.275547572E+00   0.127900322E+01  -0.157591383E+00   0.200000000E+01   0.396129510E-01   0.327571933E+04   0.678867223E+02   0.207242183E-01
 0.565486678E+01   0.271688764E+00   0.128107876E+01  -0.148400981E+00   0.200000000E+01   0.396129510E-01   0.328652461E+04   0.640157457E+02   0.194782493E-01
 0.568628270E+01   0.268065874E+00   0.128299001E+01  -0.139381704E+00   0.200000000E+01   0.396129510E-01   0.329637832E+04   0.602939815E+02   0.182909774E-01
 0.571769863E+01   0.264669635E+00   0.128474589E+01  -0.130523414E+00   0.200000000E+01   0.396129510E-01   0.330591648E+04   0.564581518E+02   0.170779123E-01
 0.574911456E+01   0.261522329E+00   0.128638119E+01  -0.121832029E+00   0.200000000E+01   0.396129510E-01   0.331452664E+04   0.527983896E+02   0.159293906E-01
 0.578053048E+01   0.258589462E+00   0.128788160E+01  -0.113282756E+00   0.200000000E+01   0.396129510E-01   0.332265446E+04   0.491280807E+02   0.147857929E-01